ITEM: TIMESTEP
0
ITEM: NUMBER OF ATOMS
175
ITEM: BOX BOUNDS pp pp pp
0.0000000000000000e+00 1.0000000000000000e+02
0.0000000000000000e+00 1.0000000000000000e+02
-5.0000000000000000e-01 5.0000000000000000e-01
ITEM: ATOMS id type x y z c_orient[1] c_orient[2] c_orient[3] c_orient[4] c_shape[1] c_shape[2] c_shape[3] 
1 1 29.1293 96.4371 0 0 0 0 1 0.5 0.5 0.5 
2 1 29.0254 93.9014 0 0 0 0 1 0.5 0.5 0.5 
3 1 29.435 92.9242 0 0 0 0 1 0.5 0.5 0.5 
4 1 27.7975 93.2264 0 0 0 0 1 0.5 0.5 0.5 
5 1 27.966 92.6986 0 0 0 0 1 0.5 0.5 0.5 
6 1 28.4251 92.2311 0 0 0 0 1 0.5 0.5 0.5 
7 1 27.2294 92.4332 0 0 0 0 1 0.5 0.5 0.5 
8 1 26.733 93.8994 0 0 0 0 1 0.5 0.5 0.5 
9 1 25.7039 93.0605 0 0 0 0 1 0.5 0.5 0.5 
10 1 26.2893 91.1429 0 0 0 0 1 0.5 0.5 0.5 
11 1 24.7012 90.5638 0 0 0 0 1 0.5 0.5 0.5 
12 1 22.56 89.7959 0 0 0 0 1 0.5 0.5 0.5 
13 1 22.8138 88.305 0 0 0 0 1 0.5 0.5 0.5 
14 1 21.46 88.8411 0 0 0 0 1 0.5 0.5 0.5 
15 1 20.2331 87.9502 0 0 0 0 1 0.5 0.5 0.5 
16 1 18.872 87.3515 0 0 0 0 1 0.5 0.5 0.5 
17 1 17.9906 85.5972 0 0 0 0 1 0.5 0.5 0.5 
18 1 19.6402 84.351 0 0 0 0 1 0.5 0.5 0.5 
19 1 19.5779 82.4779 0 0 0 0 1 0.5 0.5 0.5 
20 1 20.6724 82.2933 0 0 0 0 1 0.5 0.5 0.5 
21 1 22.4753 82.5883 0 0 0 0 1 0.5 0.5 0.5 
22 1 24.1835 83.0268 0 0 0 0 1 0.5 0.5 0.5 
23 1 23.9535 84.3547 0 0 0 0 1 0.5 0.5 0.5 
24 1 25.4904 85.8887 0 0 0 0 1 0.5 0.5 0.5 
25 1 26.8663 86.1699 0 0 0 0 1 0.5 0.5 0.5 
26 1 28.0476 85.9952 0 0 0 0 1 0.5 0.5 0.5 
27 1 28.9374 85.033 0 0 0 0 1 0.5 0.5 0.5 
28 1 29.5417 84.1138 0 0 0 0 1 0.5 0.5 0.5 
29 1 31.2364 83.2515 0 0 0 0 1 0.5 0.5 0.5 
30 2 32.777 82.4929 0 0 0 0 1 0.5 0.5 0.5 
31 3 79.4706 17.7106 0 0 0 0.586013 -0.810302 5 1.6 1.6 
32 3 11.3048 81.6167 0 0 0 0.0726391 0.997358 5 1.6 1.6 
33 3 47.3757 36.0379 0 0 0 0.458118 0.888891 5 1.6 1.6 
34 3 29.9875 30.4821 0 0 0 -0.186562 0.982443 5 1.6 1.6 
35 3 65.2615 71.7822 0 0 0 0.620933 0.783864 5 1.6 1.6 
36 3 53.7537 49.749 0 0 0 -0.550062 0.835124 5 1.6 1.6 
37 3 48.9616 98.7894 0 0 0 -0.00163008 0.999999 5 1.6 1.6 
38 3 71.9389 82.7068 0 0 0 -0.889776 -0.456398 5 1.6 1.6 
39 3 7.9036 70.8186 0 0 0 0.889398 0.457134 5 1.6 1.6 
40 3 39.1273 78.8422 0 0 0 -0.701217 -0.712948 5 1.6 1.6 
41 3 78.8472 62.7579 0 0 0 0.00863425 -0.999963 5 1.6 1.6 
42 3 49.2508 92.7442 0 0 0 0.0126678 -0.99992 5 1.6 1.6 
43 3 88.2157 89.7785 0 0 0 -0.816452 0.577413 5 1.6 1.6 
44 3 33.5466 12.2604 0 0 0 -0.403465 0.914995 5 1.6 1.6 
45 3 13.0334 14.5072 0 0 0 0.688537 0.725201 5 1.6 1.6 
46 3 66.9905 79.6075 0 0 0 0.114331 -0.993443 5 1.6 1.6 
47 3 99.5557 24.1748 0 0 0 0.303909 0.952701 5 1.6 1.6 
48 3 17.2462 91.0914 0 0 0 0.25334 -0.967377 5 1.6 1.6 
49 3 91.8864 35.8259 0 0 0 0.999935 -0.011395 5 1.6 1.6 
50 3 54.0724 40.1094 0 0 0 0.601878 0.798588 5 1.6 1.6 
51 3 70.3745 18.7661 0 0 0 0.172656 -0.984982 5 1.6 1.6 
52 3 77.9337 66.3051 0 0 0 -0.0112734 -0.999936 5 1.6 1.6 
53 3 76.9382 41.0017 0 0 0 -0.622034 0.78299 5 1.6 1.6 
54 3 81.0833 56.2844 0 0 0 0.904559 0.426347 5 1.6 1.6 
55 3 46.3974 27.4653 0 0 0 0.633412 0.773815 5 1.6 1.6 
56 3 14.8185 86.7131 0 0 0 0.996827 -0.079597 5 1.6 1.6 
57 3 8.55735 58.6591 0 0 0 -0.652511 0.757779 5 1.6 1.6 
58 3 93.1359 46.0894 0 0 0 0.467626 -0.883926 5 1.6 1.6 
59 3 35.6701 65.8048 0 0 0 0.985895 0.167365 5 1.6 1.6 
60 3 8.66125 19.933 0 0 0 -0.842499 -0.538697 5 1.6 1.6 
61 3 20.1248 84.6197 0 0 0 -0.112545 -0.993647 5 1.6 1.6 
62 3 54.1708 16.0216 0 0 0 -0.200517 -0.97969 5 1.6 1.6 
63 3 53.6104 4.26171 0 0 0 -0.763444 -0.645874 5 1.6 1.6 
64 3 14.7899 72.5271 0 0 0 0.760288 -0.649586 5 1.6 1.6 
65 3 30.7074 83.1461 0 0 0 0.00363202 0.999993 5 1.6 1.6 
66 3 85.8895 68.1724 0 0 0 0.563082 0.826401 5 1.6 1.6 
67 3 33.5572 95.1716 0 0 0 0.640951 -0.767582 5 1.6 1.6 
68 3 24.6968 80.0469 0 0 0 -0.0778548 0.996965 5 1.6 1.6 
69 3 31.0636 75.6323 0 0 0 0.822974 -0.568079 5 1.6 1.6 
70 3 58.0749 78.7104 0 0 0 -0.999823 -0.0187884 5 1.6 1.6 
71 3 55.0735 68.14 0 0 0 0.451942 -0.892047 5 1.6 1.6 
72 3 4.28812 98.6943 0 0 0 0.681881 0.731463 5 1.6 1.6 
73 3 93.8174 66.192 0 0 0 -0.54549 0.838117 5 1.6 1.6 
74 3 38.5221 18.0673 0 0 0 0.955011 0.296569 5 1.6 1.6 
75 3 81.8841 26.5404 0 0 0 0.438434 -0.898763 5 1.6 1.6 
76 3 89.1325 32.3757 0 0 0 0.997677 -0.0681275 5 1.6 1.6 
77 3 20.1005 64.4068 0 0 0 0.606637 0.794979 5 1.6 1.6 
78 3 30.8348 54.3223 0 0 0 -0.716797 -0.697282 5 1.6 1.6 
79 3 41.8211 49.8905 0 0 0 -0.453433 -0.891291 5 1.6 1.6 
80 3 53.9271 29.3537 0 0 0 -0.990481 0.137648 5 1.6 1.6 
81 3 80.1906 74.0505 0 0 0 -0.951409 -0.30793 5 1.6 1.6 
82 3 24.664 73.892 0 0 0 0.364455 0.931221 5 1.6 1.6 
83 3 20.9128 40.9458 0 0 0 -0.986632 0.162964 5 1.6 1.6 
84 3 72.3784 50.5855 0 0 0 0.334442 -0.942416 5 1.6 1.6 
85 3 52.3186 75.9577 0 0 0 -0.469501 0.882932 5 1.6 1.6 
86 3 31.2957 19.6355 0 0 0 0.920711 0.390244 5 1.6 1.6 
87 3 44.976 71 0 0 0 0.993466 -0.114129 5 1.6 1.6 
88 3 84.6788 2.92484 0 0 0 -0.994986 -0.100018 5 1.6 1.6 
89 3 35.8465 3.00205 0 0 0 -0.658725 0.752384 5 1.6 1.6 
90 3 63.5432 0.895917 0 0 0 0.26404 -0.964512 5 1.6 1.6 
91 3 91.3747 23.2652 0 0 0 0.510839 -0.859677 5 1.6 1.6 
92 3 56.9025 96.5439 0 0 0 -0.987957 0.154728 5 1.6 1.6 
93 3 89.0628 64.4993 0 0 0 -0.720174 -0.693794 5 1.6 1.6 
94 3 47.1083 85.8897 0 0 0 -0.637199 0.7707 5 1.6 1.6 
95 3 23.2752 22.8057 0 0 0 0.972059 0.234737 5 1.6 1.6 
96 3 8.36865 32.73 0 0 0 -0.926375 0.376603 5 1.6 1.6 
97 3 66.8907 16.0744 0 0 0 -0.2766 0.960985 5 1.6 1.6 
98 3 60.8396 5.50488 0 0 0 -0.999041 -0.0437806 5 1.6 1.6 
99 3 28.6849 41.4403 0 0 0 0.561294 -0.827617 5 1.6 1.6 
100 3 69.7889 2.57591 0 0 0 -0.997051 -0.0767409 5 1.6 1.6 
101 3 59.1156 70.4455 0 0 0 0.893868 0.448331 5 1.6 1.6 
102 3 41.6511 41.3727 0 0 0 0.344421 -0.938815 5 1.6 1.6 
103 3 25.4904 49.0295 0 0 0 0.460522 0.887648 5 1.6 1.6 
104 3 8.35882 49.3364 0 0 0 -0.489541 -0.87198 5 1.6 1.6 
105 3 35.8568 75.4687 0 0 0 0.761604 0.648043 5 1.6 1.6 
106 3 2.65471 80.3827 0 0 0 -0.836982 -0.547231 5 1.6 1.6 
107 3 8.75667 5.87606 0 0 0 -0.999622 -0.0274826 5 1.6 1.6 
108 3 47.7787 17.918 0 0 0 -0.999881 0.015452 5 1.6 1.6 
109 3 2.66783 53.082 0 0 0 -0.564267 0.825593 5 1.6 1.6 
110 3 37.7686 27.1285 0 0 0 0.937278 -0.348582 5 1.6 1.6 
111 3 27.5292 15.3594 0 0 0 0.506814 -0.862055 5 1.6 1.6 
112 3 3.75925 43.2406 0 0 0 0.776521 0.630091 5 1.6 1.6 
113 3 26.8942 57.5253 0 0 0 -0.419444 -0.907781 5 1.6 1.6 
114 3 59.1368 40.5156 0 0 0 -0.39892 -0.916986 5 1.6 1.6 
115 3 49.9553 6.68545 0 0 0 0.756572 0.653911 5 1.6 1.6 
116 3 60.4928 52.2006 0 0 0 -0.568973 -0.822356 5 1.6 1.6 
117 3 16.9857 6.62095 0 0 0 -0.540735 -0.841193 5 1.6 1.6 
118 3 20.56 19.2173 0 0 0 0.925941 0.377669 5 1.6 1.6 
119 3 38.4847 58.251 0 0 0 -0.513366 0.85817 5 1.6 1.6 
120 3 4.5384 57.5581 0 0 0 0.869771 0.493456 5 1.6 1.6 
121 3 10.4333 77.1868 0 0 0 0.130189 0.991489 5 1.6 1.6 
122 3 72.494 72.6502 0 0 0 0.585112 0.810953 5 1.6 1.6 
123 3 9.67622 24.8813 0 0 0 -0.937397 -0.348262 5 1.6 1.6 
124 3 24.3546 7.88756 0 0 0 -0.217115 -0.976146 5 1.6 1.6 
125 3 93.618 6.48459 0 0 0 -0.290871 -0.956762 5 1.6 1.6 
126 3 13.4662 54.6791 0 0 0 0.525981 -0.850496 5 1.6 1.6 
127 3 90.9173 57.0498 0 0 0 -0.580018 -0.814603 5 1.6 1.6 
128 3 83.2516 94.6808 0 0 0 0.94054 -0.339684 5 1.6 1.6 
129 3 79.8517 96.3415 0 0 0 0.901011 -0.433796 5 1.6 1.6 
130 3 73.365 24.5318 0 0 0 0.665076 -0.746776 5 1.6 1.6 
131 3 62.3856 47.9841 0 0 0 0.918103 -0.396343 5 1.6 1.6 
132 3 51.2219 65.4489 0 0 0 0.975656 0.219305 5 1.6 1.6 
133 3 93.7861 15.0129 0 0 0 -0.212465 -0.977169 5 1.6 1.6 
134 3 62.5141 95.3265 0 0 0 0.177403 0.984138 5 1.6 1.6 
135 3 45.8447 60.0383 0 0 0 -0.838521 0.544869 5 1.6 1.6 
136 3 2.1457 70.9608 0 0 0 0.637931 0.770094 5 1.6 1.6 
137 3 79.5519 46.2023 0 0 0 0.431877 -0.901932 5 1.6 1.6 
138 3 87.599 23.6832 0 0 0 -0.621995 0.783021 5 1.6 1.6 
139 3 13.5941 25.714 0 0 0 -0.880205 -0.474594 5 1.6 1.6 
140 3 39.8828 90.5713 0 0 0 -0.99325 0.115994 5 1.6 1.6 
141 3 74.943 35.028 0 0 0 0.87764 0.47932 5 1.6 1.6 
142 3 65.4521 9.12511 0 0 0 -0.421246 0.906946 5 1.6 1.6 
143 3 69.7563 46.7996 0 0 0 0.877368 0.479819 5 1.6 1.6 
144 3 28.5566 25.506 0 0 0 -0.987924 -0.154938 5 1.6 1.6 
145 3 34.8294 57.5683 0 0 0 -0.543938 0.839125 5 1.6 1.6 
146 3 43.1639 76.9069 0 0 0 0.551889 0.833918 5 1.6 1.6 
147 3 81.3767 81.8441 0 0 0 0.998978 0.0451975 5 1.6 1.6 
148 3 1.39081 21.116 0 0 0 -0.965971 0.258652 5 1.6 1.6 
149 3 27.1404 67.0996 0 0 0 -0.673171 0.739487 5 1.6 1.6 
150 3 43.1135 62.7962 0 0 0 0.624229 0.781241 5 1.6 1.6 
151 3 99.0474 61.8904 0 0 0 0.783394 -0.621525 5 1.6 1.6 
152 3 6.85063 14.7655 0 0 0 0.387998 -0.92166 5 1.6 1.6 
153 3 33.9665 33.6765 0 0 0 0.853927 0.520393 5 1.6 1.6 
154 3 36.7777 39.118 0 0 0 -0.187459 0.982272 5 1.6 1.6 
155 3 92.2619 76.0811 0 0 0 0.939488 -0.342583 5 1.6 1.6 
156 3 84.6598 39.8328 0 0 0 -0.0869902 -0.996209 5 1.6 1.6 
157 3 41.1727 34.1266 0 0 0 0.363597 0.931556 5 1.6 1.6 
158 3 57.0956 12.5817 0 0 0 -0.336305 -0.941753 5 1.6 1.6 
159 3 71.7149 92.7147 0 0 0 0.604383 -0.796694 5 1.6 1.6 
160 3 96.6953 51.8202 0 0 0 0.444452 -0.895803 5 1.6 1.6 
161 3 7.07588 86.3979 0 0 0 0.791291 -0.61144 5 1.6 1.6 
162 3 93.7691 98.3836 0 0 0 0.99833 0.0577724 5 1.6 1.6 
163 3 98.7806 43.8399 0 0 0 -0.484004 0.875066 5 1.6 1.6 
164 3 1.6266 33.1264 0 0 0 0.667249 0.744835 5 1.6 1.6 
165 3 48.3544 55.8798 0 0 0 -0.825328 0.564653 5 1.6 1.6 
166 3 97.5733 81.7728 0 0 0 0.581939 -0.813232 5 1.6 1.6 
167 3 48.8421 45.2765 0 0 0 -0.452889 0.891567 5 1.6 1.6 
168 3 61.2523 63.3732 0 0 0 -0.876053 -0.482215 5 1.6 1.6 
169 3 40.3133 11.198 0 0 0 0.447058 -0.894505 5 1.6 1.6 
170 3 68.1017 30.2993 0 0 0 0.985505 -0.169645 5 1.6 1.6 
171 3 89.8532 85.2842 0 0 0 0.855139 -0.518399 5 1.6 1.6 
172 3 25.452 89.2885 0 0 0 0.958569 0.284862 5 1.6 1.6 
173 3 75.2488 5.73771 0 0 0 0.267366 -0.963595 5 1.6 1.6 
174 3 99.4629 89.6534 0 0 0 -0.710652 0.703543 5 1.6 1.6 
175 3 76.4594 55.6491 0 0 0 0.639539 -0.768758 5 1.6 1.6 
ITEM: TIMESTEP
10000
ITEM: NUMBER OF ATOMS
175
ITEM: BOX BOUNDS pp pp pp
0.0000000000000000e+00 1.0000000000000000e+02
0.0000000000000000e+00 1.0000000000000000e+02
-5.0000000000000000e-01 5.0000000000000000e-01
ITEM: ATOMS id type x y z c_orient[1] c_orient[2] c_orient[3] c_orient[4] c_shape[1] c_shape[2] c_shape[3] 
1 1 36.1722 0.261795 0 0 0 0 1 0.5 0.5 0.5 
2 1 34.7105 0.326606 0 0 0 0 1 0.5 0.5 0.5 
3 1 34.3731 3.25119 0 0 0 0 1 0.5 0.5 0.5 
4 1 32.9436 3.27789 0 0 0 0 1 0.5 0.5 0.5 
5 1 31.2286 3.40013 0 0 0 0 1 0.5 0.5 0.5 
6 1 31.7031 4.83495 0 0 0 0 1 0.5 0.5 0.5 
7 1 32.047 5.84904 0 0 0 0 1 0.5 0.5 0.5 
8 1 33.429 6.37361 0 0 0 0 1 0.5 0.5 0.5 
9 1 33.4721 5.51094 0 0 0 0 1 0.5 0.5 0.5 
10 1 34.8595 4.55133 0 0 0 0 1 0.5 0.5 0.5 
11 1 36.2283 4.73108 0 0 0 0 1 0.5 0.5 0.5 
12 1 36.4087 6.21769 0 0 0 0 1 0.5 0.5 0.5 
13 1 36.1661 7.98052 0 0 0 0 1 0.5 0.5 0.5 
14 1 36.1331 8.79548 0 0 0 0 1 0.5 0.5 0.5 
15 1 36.3769 10.4178 0 0 0 0 1 0.5 0.5 0.5 
16 1 37.1681 11.0331 0 0 0 0 1 0.5 0.5 0.5 
17 1 37.436 11.987 0 0 0 0 1 0.5 0.5 0.5 
18 1 37.4274 12.3981 0 0 0 0 1 0.5 0.5 0.5 
19 1 36.5113 14.1219 0 0 0 0 1 0.5 0.5 0.5 
20 1 34.1022 14.7003 0 0 0 0 1 0.5 0.5 0.5 
21 1 33.0483 14.0115 0 0 0 0 1 0.5 0.5 0.5 
22 1 32.3397 12.96 0 0 0 0 1 0.5 0.5 0.5 
23 1 31.73 11.9151 0 0 0 0 1 0.5 0.5 0.5 
24 1 32.0597 9.82093 0 0 0 0 1 0.5 0.5 0.5 
25 1 32.6953 9.6235 0 0 0 0 1 0.5 0.5 0.5 
26 1 31.8215 8.4185 0 0 0 0 1 0.5 0.5 0.5 
27 1 30.607 8.72549 0 0 0 0 1 0.5 0.5 0.5 
28 1 31.5679 7.62202 0 0 0 0 1 0.5 0.5 0.5 
29 1 31.2881 6.55715 0 0 0 0 1 0.5 0.5 0.5 
30 2 30.5362 5.83353 0 0 0 0 1 0.5 0.5 0.5 
31 3 16.5324 81.2624 0 0 0 0.996364 -0.0851939 5 1.6 1.6 
32 3 71.326 84.7959 0 0 0 0.529566 0.848269 5 1.6 1.6 
33 3 92.7664 21.8673 0 0 0 -0.893668 0.448729 5 1.6 1.6 
34 3 28.5953 15.6401 0 0 0 0.975313 -0.220827 5 1.6 1.6 
35 3 26.3539 75.3349 0 0 0 -0.842732 -0.538333 5 1.6 1.6 
36 3 83.3008 53.554 0 0 0 0.998141 -0.0609445 5 1.6 1.6 
37 3 98.7366 10.6566 0 0 0 -0.99805 -0.0624237 5 1.6 1.6 
38 3 4.7693 94.8151 0 0 0 0.973237 0.229805 5 1.6 1.6 
39 3 94.0538 65.8545 0 0 0 0.671906 0.740636 5 1.6 1.6 
40 3 51.3371 72.2707 0 0 0 0.881006 -0.473104 5 1.6 1.6 
41 3 5.78684 86.1271 0 0 0 0.995231 0.0975419 5 1.6 1.6 
42 3 15.5655 59.6696 0 0 0 -0.82613 -0.56348 5 1.6 1.6 
43 3 75.7882 9.5367 0 0 0 -0.552312 0.833637 5 1.6 1.6 
44 3 27.9896 93.5676 0 0 0 0.0860467 -0.996291 5 1.6 1.6 
45 3 19.3372 8.94205 0 0 0 -0.196959 0.980412 5 1.6 1.6 
46 3 59.6509 75.5917 0 0 0 0.295422 0.955367 5 1.6 1.6 
47 3 15.7756 4.45255 0 0 0 -0.5372 0.843455 5 1.6 1.6 
48 3 4.90166 62.8946 0 0 0 0.468784 -0.883313 5 1.6 1.6 
49 3 90.0247 61.5515 0 0 0 0.444723 -0.895668 5 1.6 1.6 
50 3 72.1362 97.9789 0 0 0 0.902316 -0.431076 5 1.6 1.6 
51 3 71.6677 41.4022 0 0 0 -0.894358 -0.447353 5 1.6 1.6 
52 3 91.1512 37.2146 0 0 0 0.0978125 0.995205 5 1.6 1.6 
53 3 14.8577 77.4716 0 0 0 0.15516 0.987889 5 1.6 1.6 
54 3 49.1042 92.8259 0 0 0 -0.862083 0.506768 5 1.6 1.6 
55 3 89.336 68.2499 0 0 0 -0.555455 0.831546 5 1.6 1.6 
56 3 2.87733 3.55072 0 0 0 -0.482832 -0.875713 5 1.6 1.6 
57 3 19.7471 89.8231 0 0 0 -0.806574 -0.591134 5 1.6 1.6 
58 3 21.05 74.2226 0 0 0 0.758839 0.651278 5 1.6 1.6 
59 3 34.3324 48.0057 0 0 0 0.93876 0.344572 5 1.6 1.6 
60 3 28.1224 23.6386 0 0 0 0.196166 0.980571 5 1.6 1.6 
61 3 4.99044 74.8682 0 0 0 0.991144 -0.132791 5 1.6 1.6 
62 3 56.316 88.5537 0 0 0 0.295979 -0.955195 5 1.6 1.6 
63 3 59.2387 36.2871 0 0 0 -0.62151 0.783406 5 1.6 1.6 
64 3 20.8064 46.6022 0 0 0 0.139866 -0.99017 5 1.6 1.6 
65 3 96.6775 3.75358 0 0 0 -0.772769 -0.634688 5 1.6 1.6 
66 3 84.9482 1.68546 0 0 0 -0.0652554 0.997869 5 1.6 1.6 
67 3 41.2158 1.02416 0 0 0 -0.857987 -0.513671 5 1.6 1.6 
68 3 89.7183 8.49137 0 0 0 0.407744 0.913096 5 1.6 1.6 
69 3 97.4847 15.6105 0 0 0 0.217322 0.9761 5 1.6 1.6 
70 3 11.4434 44.2662 0 0 0 -0.175076 -0.984555 5 1.6 1.6 
71 3 53.222 22.2215 0 0 0 0.650267 -0.759705 5 1.6 1.6 
72 3 34.8797 30.7142 0 0 0 0.262221 -0.965008 5 1.6 1.6 
73 3 70.5957 11.9878 0 0 0 -0.850725 0.525611 5 1.6 1.6 
74 3 58.0665 15.1163 0 0 0 0.873112 0.48752 5 1.6 1.6 
75 3 43.4896 92.0082 0 0 0 -0.580815 0.814036 5 1.6 1.6 
76 3 46.3544 31.3139 0 0 0 -0.341195 0.939992 5 1.6 1.6 
77 3 47.005 56.1209 0 0 0 -0.993133 -0.116995 5 1.6 1.6 
78 3 20.6425 59.8394 0 0 0 0.642503 -0.766283 5 1.6 1.6 
79 3 29.5272 85.0047 0 0 0 0.361037 0.932552 5 1.6 1.6 
80 3 73.8593 64.4767 0 0 0 0.911355 0.411621 5 1.6 1.6 
81 3 74.4234 69.3857 0 0 0 0.470083 -0.882622 5 1.6 1.6 
82 3 63.1733 29.2185 0 0 0 0.776321 0.630337 5 1.6 1.6 
83 3 68.1544 35.0464 0 0 0 0.999958 -0.00921145 5 1.6 1.6 
84 3 95.7394 54.7629 0 0 0 -0.119051 -0.992888 5 1.6 1.6 
85 3 53.386 35.4116 0 0 0 0.975098 0.221773 5 1.6 1.6 
86 3 58.3213 58.3305 0 0 0 -0.677532 -0.735493 5 1.6 1.6 
87 3 25.2805 66.4284 0 0 0 -0.860001 0.510292 5 1.6 1.6 
88 3 68.0201 76.7373 0 0 0 0.875529 0.483166 5 1.6 1.6 
89 3 24.2554 86.636 0 0 0 -0.837774 0.546016 5 1.6 1.6 
90 3 13.7855 73.4586 0 0 0 -0.0532989 0.998579 5 1.6 1.6 
91 3 9.18862 36.47 0 0 0 -0.601613 0.798788 5 1.6 1.6 
92 3 35.7581 20.8606 0 0 0 0.817391 0.576084 5 1.6 1.6 
93 3 38.6263 9.89906 0 0 0 0.81874 0.574164 5 1.6 1.6 
94 3 65.0765 70.9419 0 0 0 -0.565346 0.824854 5 1.6 1.6 
95 3 24.5225 98.3628 0 0 0 0.986638 0.162928 5 1.6 1.6 
96 3 10.3647 25.6053 0 0 0 0.58916 -0.808016 5 1.6 1.6 
97 3 51.2239 16.8572 0 0 0 0.947661 0.319279 5 1.6 1.6 
98 3 17.8598 28.2683 0 0 0 -0.806903 -0.590684 5 1.6 1.6 
99 3 15.3152 51.934 0 0 0 0.252187 -0.967678 5 1.6 1.6 
100 3 85.5353 11.9088 0 0 0 0.963415 -0.268015 5 1.6 1.6 
101 3 89.3843 49.8388 0 0 0 0.98444 0.175722 5 1.6 1.6 
102 3 71.1439 2.28201 0 0 0 -0.966383 0.257108 5 1.6 1.6 
103 3 89.7256 86.8632 0 0 0 0.743817 0.668383 5 1.6 1.6 
104 3 28.2204 49.37 0 0 0 0.808421 0.588605 5 1.6 1.6 
105 3 57.3805 24.3226 0 0 0 -0.610175 0.792266 5 1.6 1.6 
106 3 60.5229 91.3372 0 0 0 0.991701 0.128563 5 1.6 1.6 
107 3 58.8152 5.87057 0 0 0 -0.633429 -0.773801 5 1.6 1.6 
108 3 63.3516 84.5554 0 0 0 -0.542522 -0.840042 5 1.6 1.6 
109 3 0.557293 59.1288 0 0 0 0.956556 0.291547 5 1.6 1.6 
110 3 32.9262 66.2729 0 0 0 -0.081865 -0.996643 5 1.6 1.6 
111 3 8.49214 12.542 0 0 0 0.921735 -0.38782 5 1.6 1.6 
112 3 2.8801 50.3524 0 0 0 0.14223 0.989834 5 1.6 1.6 
113 3 7.07606 16.4516 0 0 0 0.395249 0.918574 5 1.6 1.6 
114 3 33.4036 40.829 0 0 0 -0.294877 0.955535 5 1.6 1.6 
115 3 50.7582 59.8864 0 0 0 0.113246 -0.993567 5 1.6 1.6 
116 3 78.463 89.3274 0 0 0 0.297369 0.954763 5 1.6 1.6 
117 3 39.9724 41.1364 0 0 0 0.248445 -0.968646 5 1.6 1.6 
118 3 8.18009 55.784 0 0 0 0.952006 -0.306079 5 1.6 1.6 
119 3 90.2897 74.3444 0 0 0 -0.935843 -0.352416 5 1.6 1.6 
120 3 66.4514 49.5497 0 0 0 -0.887731 0.460363 5 1.6 1.6 
121 3 78.5049 94.7774 0 0 0 0.99772 -0.0674949 5 1.6 1.6 
122 3 88.8294 98.4209 0 0 0 0.991554 -0.129692 5 1.6 1.6 
123 3 61.8533 0.873599 0 0 0 0.750557 0.660806 5 1.6 1.6 
124 3 25.714 29.2966 0 0 0 -0.999679 0.0253228 5 1.6 1.6 
125 3 39.4197 35.8057 0 0 0 0.986445 -0.164093 5 1.6 1.6 
126 3 24.3427 55.3465 0 0 0 0.836183 -0.548451 5 1.6 1.6 
127 3 98.8054 69.5473 0 0 0 0.499242 -0.866463 5 1.6 1.6 
128 3 88.2664 94.7903 0 0 0 -0.0516578 -0.998665 5 1.6 1.6 
129 3 2.06316 82.4567 0 0 0 0.990116 0.140253 5 1.6 1.6 
130 3 35.6401 51.9544 0 0 0 -0.239966 0.970781 5 1.6 1.6 
131 3 61.3346 20.5947 0 0 0 0.686944 -0.72671 5 1.6 1.6 
132 3 54.4407 7.88771 0 0 0 -0.344824 -0.938667 5 1.6 1.6 
133 3 40.2934 70.44 0 0 0 -0.982042 0.188664 5 1.6 1.6 
134 3 76.6238 82.0081 0 0 0 0.0807144 0.996737 5 1.6 1.6 
135 3 46.1534 68.8914 0 0 0 -0.554207 -0.832379 5 1.6 1.6 
136 3 94.7026 88.2815 0 0 0 -0.541648 0.840606 5 1.6 1.6 
137 3 97.5826 45.124 0 0 0 -0.251507 -0.967856 5 1.6 1.6 
138 3 86.8227 44.0411 0 0 0 -0.759666 -0.650314 5 1.6 1.6 
139 3 3.70255 25.2444 0 0 0 0.228656 -0.973507 5 1.6 1.6 
140 3 20.4334 20.3546 0 0 0 0.990845 0.135001 5 1.6 1.6 
141 3 79.2469 19.6239 0 0 0 0.998906 -0.046772 5 1.6 1.6 
142 3 82.4486 63.8728 0 0 0 -0.95573 0.294246 5 1.6 1.6 
143 3 15.4848 14.9418 0 0 0 -0.946684 0.322164 5 1.6 1.6 
144 3 13.9726 29.9787 0 0 0 -0.761159 -0.648565 5 1.6 1.6 
145 3 8.74978 97.3526 0 0 0 0.0462883 -0.998928 5 1.6 1.6 
146 3 87.5923 24.1221 0 0 0 -0.815289 0.579054 5 1.6 1.6 
147 3 54.7554 81.3624 0 0 0 0.682422 -0.730958 5 1.6 1.6 
148 3 85.2 15.8251 0 0 0 0.296871 0.954918 5 1.6 1.6 
149 3 79.1888 38.5983 0 0 0 -0.682133 0.731228 5 1.6 1.6 
150 3 70.2466 61.4608 0 0 0 -0.865243 -0.501353 5 1.6 1.6 
151 3 75.3618 24.3912 0 0 0 0.975983 0.217848 5 1.6 1.6 
152 3 10.11 1.55581 0 0 0 0.0361607 -0.999346 5 1.6 1.6 
153 3 41.6663 63.2024 0 0 0 0.944515 0.328469 5 1.6 1.6 
154 3 67.8483 19.8836 0 0 0 0.66176 0.749715 5 1.6 1.6 
155 3 82.9079 75.0709 0 0 0 -0.621258 0.783606 5 1.6 1.6 
156 3 47.9466 34.9542 0 0 0 -0.914795 -0.403918 5 1.6 1.6 
157 3 54.7215 0.0919315 0 0 0 0.924398 0.38143 5 1.6 1.6 
158 3 77.2383 14.5778 0 0 0 0.909329 0.416079 5 1.6 1.6 
159 3 50.1868 63.8225 0 0 0 0.998472 -0.0552521 5 1.6 1.6 
160 3 14.7736 69.5898 0 0 0 -0.997203 -0.074742 5 1.6 1.6 
161 3 38.4348 85.8844 0 0 0 -0.415712 -0.909496 5 1.6 1.6 
162 3 64.4474 6.36669 0 0 0 0.454812 -0.890587 5 1.6 1.6 
163 3 70.7156 50.2855 0 0 0 0.585848 0.810421 5 1.6 1.6 
164 3 15.875 42.2655 0 0 0 -0.230841 -0.972992 5 1.6 1.6 
165 3 43.0847 49.4032 0 0 0 -0.522235 -0.852801 5 1.6 1.6 
166 3 31.5042 73.3743 0 0 0 -0.745679 0.666306 5 1.6 1.6 
167 3 37.9157 93.0956 0 0 0 -0.881813 0.4716 5 1.6 1.6 
168 3 3.96907 30.6642 0 0 0 0.995593 -0.093778 5 1.6 1.6 
169 3 47.7944 0.112867 0 0 0 0.877941 -0.478768 5 1.6 1.6 
170 3 74.8597 74.6844 0 0 0 -0.962461 -0.27142 5 1.6 1.6 
171 3 41.5246 83.4776 0 0 0 0.239124 0.970989 5 1.6 1.6 
172 3 47.9822 44.2159 0 0 0 -0.598534 0.801097 5 1.6 1.6 
173 3 76.8333 54.8139 0 0 0 -0.404281 -0.914635 5 1.6 1.6 
174 3 9.84457 65.3207 0 0 0 -0.785292 -0.619125 5 1.6 1.6 
175 3 63.1597 61.1096 0 0 0 0.888756 0.45838 5 1.6 1.6 
ITEM: TIMESTEP
20000
ITEM: NUMBER OF ATOMS
175
ITEM: BOX BOUNDS pp pp pp
0.0000000000000000e+00 1.0000000000000000e+02
0.0000000000000000e+00 1.0000000000000000e+02
-5.0000000000000000e-01 5.0000000000000000e-01
ITEM: ATOMS id type x y z c_orient[1] c_orient[2] c_orient[3] c_orient[4] c_shape[1] c_shape[2] c_shape[3] 
1 1 49.9858 34.5089 0 0 0 0 1 0.5 0.5 0.5 
2 1 51.1115 35.0023 0 0 0 0 1 0.5 0.5 0.5 
3 1 52.4916 35.5496 0 0 0 0 1 0.5 0.5 0.5 
4 1 52.6812 35.8936 0 0 0 0 1 0.5 0.5 0.5 
5 1 53.1058 35.8538 0 0 0 0 1 0.5 0.5 0.5 
6 1 53.8944 35.8017 0 0 0 0 1 0.5 0.5 0.5 
7 1 54.9464 36.5988 0 0 0 0 1 0.5 0.5 0.5 
8 1 54.1473 38.1555 0 0 0 0 1 0.5 0.5 0.5 
9 1 53.2316 38.8713 0 0 0 0 1 0.5 0.5 0.5 
10 1 50.9105 39.4389 0 0 0 0 1 0.5 0.5 0.5 
11 1 49.5697 40.2286 0 0 0 0 1 0.5 0.5 0.5 
12 1 49.3953 40.9383 0 0 0 0 1 0.5 0.5 0.5 
13 1 51.2821 42.452 0 0 0 0 1 0.5 0.5 0.5 
14 1 51.3283 43.6197 0 0 0 0 1 0.5 0.5 0.5 
15 1 51.2965 43.9111 0 0 0 0 1 0.5 0.5 0.5 
16 1 50.4526 45.8223 0 0 0 0 1 0.5 0.5 0.5 
17 1 51.2466 45.4906 0 0 0 0 1 0.5 0.5 0.5 
18 1 51.4217 44.7784 0 0 0 0 1 0.5 0.5 0.5 
19 1 50.4851 45.0368 0 0 0 0 1 0.5 0.5 0.5 
20 1 49.6518 45.9594 0 0 0 0 1 0.5 0.5 0.5 
21 1 48.5499 47.6414 0 0 0 0 1 0.5 0.5 0.5 
22 1 46.0635 47.3603 0 0 0 0 1 0.5 0.5 0.5 
23 1 44.3763 46.8919 0 0 0 0 1 0.5 0.5 0.5 
24 1 43.4934 47.0379 0 0 0 0 1 0.5 0.5 0.5 
25 1 45.3256 47.2777 0 0 0 0 1 0.5 0.5 0.5 
26 1 43.5047 47.1671 0 0 0 0 1 0.5 0.5 0.5 
27 1 41.9483 45.9613 0 0 0 0 1 0.5 0.5 0.5 
28 1 41.3192 45.223 0 0 0 0 1 0.5 0.5 0.5 
29 1 40.6395 44.4087 0 0 0 0 1 0.5 0.5 0.5 
30 2 39.1974 46.196 0 0 0 0 1 0.5 0.5 0.5 
31 3 96.4396 72.6812 0 0 0 0.293234 -0.956041 5 1.6 1.6 
32 3 48.4228 30.5946 0 0 0 0.935351 0.353722 5 1.6 1.6 
33 3 9.27913 24.5749 0 0 0 -0.881437 -0.472301 5 1.6 1.6 
34 3 31.2729 18.7603 0 0 0 0.808493 0.588506 5 1.6 1.6 
35 3 69.3441 20.3082 0 0 0 0.239516 -0.970892 5 1.6 1.6 
36 3 92.8092 38.2566 0 0 0 -0.319489 -0.94759 5 1.6 1.6 
37 3 18.7451 86.0549 0 0 0 0.452365 0.891833 5 1.6 1.6 
38 3 30.7837 66.3849 0 0 0 0.987037 0.160493 5 1.6 1.6 
39 3 89.0464 96.2451 0 0 0 0.418668 -0.90814 5 1.6 1.6 
40 3 7.92563 92.8992 0 0 0 0.922682 -0.385562 5 1.6 1.6 
41 3 33.4084 95.6652 0 0 0 0.897188 0.441648 5 1.6 1.6 
42 3 23.138 58.5731 0 0 0 -0.203866 0.978999 5 1.6 1.6 
43 3 69.6296 25.2782 0 0 0 -0.448667 0.893699 5 1.6 1.6 
44 3 2.10664 54.6741 0 0 0 -0.885685 0.464287 5 1.6 1.6 
45 3 27.5816 4.331 0 0 0 0.494554 -0.869147 5 1.6 1.6 
46 3 62.5956 98.4605 0 0 0 -0.102928 0.994689 5 1.6 1.6 
47 3 16.7619 19.3118 0 0 0 0.983845 -0.17902 5 1.6 1.6 
48 3 15.9732 62.1631 0 0 0 -0.86291 0.505358 5 1.6 1.6 
49 3 99.6371 86.2532 0 0 0 0.911814 -0.410604 5 1.6 1.6 
50 3 3.42378 96.8522 0 0 0 0.330956 0.943646 5 1.6 1.6 
51 3 77.7231 42.4631 0 0 0 0.0645281 -0.997916 5 1.6 1.6 
52 3 48.0612 39.6943 0 0 0 -0.820499 -0.571648 5 1.6 1.6 
53 3 78.5485 75.2026 0 0 0 0.989569 0.144059 5 1.6 1.6 
54 3 66.2147 1.72876 0 0 0 0.999438 -0.0335199 5 1.6 1.6 
55 3 75.1821 51.3969 0 0 0 0.420208 -0.907428 5 1.6 1.6 
56 3 21.8152 71.0127 0 0 0 0.909129 -0.416515 5 1.6 1.6 
57 3 89.7717 60.2368 0 0 0 -0.887666 -0.460488 5 1.6 1.6 
58 3 17.744 35.4044 0 0 0 0.677409 0.735607 5 1.6 1.6 
59 3 73.3364 96.5615 0 0 0 0.563847 -0.825879 5 1.6 1.6 
60 3 85.4578 37.499 0 0 0 0.981085 -0.193577 5 1.6 1.6 
61 3 62.5151 26.082 0 0 0 0.60011 -0.799917 5 1.6 1.6 
62 3 69.0738 73.4366 0 0 0 0.432016 0.901866 5 1.6 1.6 
63 3 36.8358 60.4154 0 0 0 -0.247164 0.968974 5 1.6 1.6 
64 3 19.1741 73.4169 0 0 0 -0.386576 -0.922258 5 1.6 1.6 
65 3 88.1716 90.4943 0 0 0 -0.940897 -0.338694 5 1.6 1.6 
66 3 67.3424 41.5053 0 0 0 0.153378 0.988168 5 1.6 1.6 
67 3 61.6711 71.5739 0 0 0 0.798138 -0.602475 5 1.6 1.6 
68 3 93.5204 78.5125 0 0 0 0.271957 0.962309 5 1.6 1.6 
69 3 27.4669 11.4314 0 0 0 -0.986318 0.164856 5 1.6 1.6 
70 3 54.8566 15.2654 0 0 0 -0.352511 -0.935808 5 1.6 1.6 
71 3 3.80648 19.9576 0 0 0 -0.998388 0.0567647 5 1.6 1.6 
72 3 25.4231 0.254664 0 0 0 0.951625 0.307261 5 1.6 1.6 
73 3 39.0362 12.1367 0 0 0 -0.268147 0.963378 5 1.6 1.6 
74 3 75.5177 19.8609 0 0 0 0.754636 0.656143 5 1.6 1.6 
75 3 17.2047 76.9519 0 0 0 0.207246 0.978289 5 1.6 1.6 
76 3 63.3571 11.3993 0 0 0 0.252793 0.96752 5 1.6 1.6 
77 3 67.3354 55.5252 0 0 0 0.141588 0.989926 5 1.6 1.6 
78 3 35.9845 34.3191 0 0 0 0.984841 -0.173458 5 1.6 1.6 
79 3 25.7369 93.642 0 0 0 0.975571 0.219685 5 1.6 1.6 
80 3 75.0793 39.1474 0 0 0 -0.0512512 0.998686 5 1.6 1.6 
81 3 12.3155 81.4636 0 0 0 0.212323 -0.9772 5 1.6 1.6 
82 3 70.1594 12.604 0 0 0 0.311458 0.95026 5 1.6 1.6 
83 3 57.5957 77.3199 0 0 0 -0.284208 -0.958763 5 1.6 1.6 
84 3 66.3683 62.9939 0 0 0 0.564852 -0.825192 5 1.6 1.6 
85 3 46.8304 21.4211 0 0 0 -0.98671 -0.16249 5 1.6 1.6 
86 3 13.0399 41.3792 0 0 0 -0.504558 0.863378 5 1.6 1.6 
87 3 62.0687 61.9767 0 0 0 0.833066 0.553174 5 1.6 1.6 
88 3 93.5506 83.3884 0 0 0 -0.416801 -0.908998 5 1.6 1.6 
89 3 70.4984 63.2735 0 0 0 0.77936 0.626576 5 1.6 1.6 
90 3 19.2096 6.7719 0 0 0 0.984877 -0.173253 5 1.6 1.6 
91 3 13.6211 65.2353 0 0 0 -0.912636 0.408772 5 1.6 1.6 
92 3 82.7561 31.8479 0 0 0 -0.934921 0.354855 5 1.6 1.6 
93 3 39.8006 30.5711 0 0 0 0.994357 0.106088 5 1.6 1.6 
94 3 74.5358 46.3395 0 0 0 0.0656809 -0.997841 5 1.6 1.6 
95 3 23.6624 33.9237 0 0 0 -0.918744 -0.394853 5 1.6 1.6 
96 3 90.4886 21.9028 0 0 0 0.937326 0.348454 5 1.6 1.6 
97 3 23.1474 14.29 0 0 0 0.998554 -0.0537543 5 1.6 1.6 
98 3 47.9523 46.4686 0 0 0 -0.308026 0.951378 5 1.6 1.6 
99 3 67.5816 91.101 0 0 0 0.986145 -0.165888 5 1.6 1.6 
100 3 53.7029 8.57932 0 0 0 0.133327 -0.991072 5 1.6 1.6 
101 3 81.6865 59.3038 0 0 0 -0.971044 0.238903 5 1.6 1.6 
102 3 80.8384 47.9859 0 0 0 0.840015 0.542563 5 1.6 1.6 
103 3 76.9247 86.4436 0 0 0 0.254442 -0.967088 5 1.6 1.6 
104 3 16.7298 27.5338 0 0 0 0.977201 -0.212314 5 1.6 1.6 
105 3 63.6733 83.5731 0 0 0 -0.829444 -0.55859 5 1.6 1.6 
106 3 41.6312 87.0435 0 0 0 0.391836 -0.920035 5 1.6 1.6 
107 3 51.2095 88.7823 0 0 0 -0.0868504 -0.996221 5 1.6 1.6 
108 3 56.8037 21.8487 0 0 0 0.996867 -0.0791012 5 1.6 1.6 
109 3 96.679 93.3171 0 0 0 -0.56544 0.82479 5 1.6 1.6 
110 3 80.4937 92.1458 0 0 0 0.957139 0.289628 5 1.6 1.6 
111 3 8.01308 73.4351 0 0 0 0.9598 -0.280685 5 1.6 1.6 
112 3 95.8274 63.9178 0 0 0 -0.290114 0.956992 5 1.6 1.6 
113 3 27.9327 48.5354 0 0 0 0.23571 -0.971823 5 1.6 1.6 
114 3 75.2621 30.3231 0 0 0 -0.632779 -0.774332 5 1.6 1.6 
115 3 29.522 72.6427 0 0 0 0.358941 0.93336 5 1.6 1.6 
116 3 57.5922 38.9181 0 0 0 0.213318 0.976983 5 1.6 1.6 
117 3 1.33186 31.7289 0 0 0 -0.360323 0.932828 5 1.6 1.6 
118 3 82.0836 54.7796 0 0 0 0.999891 0.0147482 5 1.6 1.6 
119 3 56.4817 55.6996 0 0 0 0.0881686 0.996106 5 1.6 1.6 
120 3 60.3013 51.2663 0 0 0 -0.998973 0.0453011 5 1.6 1.6 
121 3 38.482 7.65195 0 0 0 0.428896 -0.903354 5 1.6 1.6 
122 3 49.6821 69.8492 0 0 0 0.977859 0.209263 5 1.6 1.6 
123 3 31.1069 86.465 0 0 0 -0.804711 0.593667 5 1.6 1.6 
124 3 5.95603 52.853 0 0 0 0.912639 -0.408765 5 1.6 1.6 
125 3 50.634 51.1953 0 0 0 -0.992769 0.120041 5 1.6 1.6 
126 3 83.423 66.8134 0 0 0 -0.482725 0.875772 5 1.6 1.6 
127 3 46.6563 62.3592 0 0 0 0.356256 0.934388 5 1.6 1.6 
128 3 96.8558 30.5635 0 0 0 -0.942533 -0.334113 5 1.6 1.6 
129 3 83.375 86.4303 0 0 0 0.957137 0.289635 5 1.6 1.6 
130 3 49.6868 80.6919 0 0 0 -0.909454 -0.415805 5 1.6 1.6 
131 3 9.50389 14.3963 0 0 0 -0.701043 -0.713119 5 1.6 1.6 
132 3 31.8356 26.006 0 0 0 -0.998518 -0.0544218 5 1.6 1.6 
133 3 22.8166 81.0362 0 0 0 0.994735 0.102483 5 1.6 1.6 
134 3 27.0715 63.9146 0 0 0 0.949364 0.314179 5 1.6 1.6 
135 3 78.3742 80.1575 0 0 0 -0.972563 -0.232639 5 1.6 1.6 
136 3 67.514 77.7245 0 0 0 -0.892538 0.450972 5 1.6 1.6 
137 3 9.00959 86.1026 0 0 0 0.981525 0.191333 5 1.6 1.6 
138 3 89.725 13.5149 0 0 0 -0.91643 0.400195 5 1.6 1.6 
139 3 62.7023 5.31352 0 0 0 -0.297689 -0.954663 5 1.6 1.6 
140 3 71.5947 33.4197 0 0 0 0.95163 -0.307248 5 1.6 1.6 
141 3 83.3318 3.8133 0 0 0 0.976174 -0.216991 5 1.6 1.6 
142 3 3.11072 39.0936 0 0 0 -0.16316 -0.9866 5 1.6 1.6 
143 3 12.8721 32.5904 0 0 0 0.678291 0.734793 5 1.6 1.6 
144 3 5.56674 5.43604 0 0 0 -0.217571 -0.976044 5 1.6 1.6 
145 3 64.6758 44.3754 0 0 0 -0.974198 0.225696 5 1.6 1.6 
146 3 5.19183 46.5544 0 0 0 -0.979329 0.202272 5 1.6 1.6 
147 3 1.05957 75.2535 0 0 0 0.999227 0.039299 5 1.6 1.6 
148 3 43.0455 43.6016 0 0 0 0.529552 -0.848278 5 1.6 1.6 
149 3 2.41633 65.3955 0 0 0 -0.800023 0.599969 5 1.6 1.6 
150 3 3.15321 8.43783 0 0 0 0.925371 -0.379062 5 1.6 1.6 
151 3 65.1466 18.4346 0 0 0 0.206631 -0.978419 5 1.6 1.6 
152 3 18.7728 47.387 0 0 0 0.980078 -0.198614 5 1.6 1.6 
153 3 35.083 84.1714 0 0 0 -0.773757 0.633483 5 1.6 1.6 
154 3 72.9245 5.74651 0 0 0 0.991248 -0.132015 5 1.6 1.6 
155 3 59.1341 91.492 0 0 0 -0.79466 -0.607055 5 1.6 1.6 
156 3 82.3055 18.3975 0 0 0 -0.587259 -0.809399 5 1.6 1.6 
157 3 32.8252 54.0678 0 0 0 -0.549199 0.835691 5 1.6 1.6 
158 3 53.9321 31.8542 0 0 0 -0.960805 -0.277226 5 1.6 1.6 
159 3 43.3738 37.116 0 0 0 -0.968163 -0.250322 5 1.6 1.6 
160 3 9.80309 67.9404 0 0 0 0.162299 0.986742 5 1.6 1.6 
161 3 39.5524 21.7985 0 0 0 0.800295 0.599606 5 1.6 1.6 
162 3 88.2116 30.2414 0 0 0 0.0981185 0.995175 5 1.6 1.6 
163 3 61.3841 34.9045 0 0 0 0.101127 0.994874 5 1.6 1.6 
164 3 42.6124 65.5287 0 0 0 -0.211916 -0.977288 5 1.6 1.6 
165 3 18.0457 23.6431 0 0 0 0.981802 -0.18991 5 1.6 1.6 
166 3 17.6816 51.5085 0 0 0 -0.165808 -0.986158 5 1.6 1.6 
167 3 14.7773 9.6196 0 0 0 0.0788278 0.996888 5 1.6 1.6 
168 3 32.2388 4.20582 0 0 0 -0.820219 -0.57205 5 1.6 1.6 
169 3 43.904 94.0911 0 0 0 -0.0708103 -0.99749 5 1.6 1.6 
170 3 52.1259 57.8707 0 0 0 -0.253946 -0.967218 5 1.6 1.6 
171 3 37.4015 43.7265 0 0 0 -0.334765 0.942302 5 1.6 1.6 
172 3 52.188 95.8571 0 0 0 -0.500913 -0.865498 5 1.6 1.6 
173 3 22.9037 44.6325 0 0 0 0.0928144 0.995683 5 1.6 1.6 
174 3 89.5326 69.9 0 0 0 -0.857237 0.514922 5 1.6 1.6 
175 3 54.6789 45.2191 0 0 0 -0.378121 0.925756 5 1.6 1.6 
ITEM: TIMESTEP
30000
ITEM: NUMBER OF ATOMS
175
ITEM: BOX BOUNDS pp pp pp
0.0000000000000000e+00 1.0000000000000000e+02
0.0000000000000000e+00 1.0000000000000000e+02
-5.0000000000000000e-01 5.0000000000000000e-01