 #data file
  
          3227     atoms
  3227     ellipsoids
     0     bonds
     0    angles
0 dihedrals
0 impropers
  
1 atom types
0 bond types
0 angle types
0 dihedral types
0 improper types
  
 0.0  150.0  xlo xhi
 0.0  150.0  ylo yhi
-1.0    1.0  zlo zhi
  
Atoms
  
     1     1     1      0.4244      1.5000      0.5000      0.0000
     2     1     1      0.4244      1.5000      1.5000      0.0000
     3     1     1      0.4244      1.5000      2.5000      0.0000
     4     1     1      0.4244      1.5000      3.5000      0.0000
     5     1     1      0.4244      1.5000      4.5000      0.0000
     6     1     1      0.4244      1.5000      5.5000      0.0000
     7     1     1      0.4244      1.5000      6.5000      0.0000
     8     1     1      0.4244      1.5000      7.5000      0.0000
     9     1     1      0.4244      1.5000      8.5000      0.0000
    10     1     1      0.4244      1.5000      9.5000      0.0000
    11     1     1      0.4244      1.5000     10.5000      0.0000
    12     1     1      0.4244      1.5000     11.5000      0.0000
    13     1     1      0.4244      1.5000     12.5000      0.0000
    14     1     1      0.4244      1.5000     13.5000      0.0000
    15     1     1      0.4244      1.5000     14.5000      0.0000
    16     1     1      0.4244      1.5000     15.5000      0.0000
    17     1     1      0.4244      1.5000     16.5000      0.0000
    18     1     1      0.4244      1.5000     17.5000      0.0000
    19     1     1      0.4244      1.5000     18.5000      0.0000
    20     1     1      0.4244      1.5000     19.5000      0.0000
    21     1     1      0.4244      1.5000     20.5000      0.0000
    22     1     1      0.4244      1.5000     21.5000      0.0000
    23     1     1      0.4244      1.5000     22.5000      0.0000
    24     1     1      0.4244      1.5000     23.5000      0.0000
    25     1     1      0.4244      1.5000     24.5000      0.0000
    26     1     1      0.4244      1.5000     25.5000      0.0000
    27     1     1      0.4244      1.5000     26.5000      0.0000
    28     1     1      0.4244      1.5000     27.5000      0.0000
    29     1     1      0.4244      1.5000     28.5000      0.0000
    30     1     1      0.4244      1.5000     29.5000      0.0000
    31     1     1      0.4244      1.5000     30.5000      0.0000
    32     1     1      0.4244      1.5000     31.5000      0.0000
    33     1     1      0.4244      1.5000     32.5000      0.0000
    34     1     1      0.4244      1.5000     33.5000      0.0000
    35     1     1      0.4244      1.5000     34.5000      0.0000
    36     1     1      0.4244      1.5000     35.5000      0.0000
    37     1     1      0.4244      1.5000     36.5000      0.0000
    38     1     1      0.4244      1.5000     37.5000      0.0000
    39     1     1      0.4244      1.5000     38.5000      0.0000
    40     1     1      0.4244      1.5000     39.5000      0.0000
    41     1     1      0.4244      1.5000     40.5000      0.0000
    42     1     1      0.4244      1.5000     41.5000      0.0000
    43     1     1      0.4244      1.5000     42.5000      0.0000
    44     1     1      0.4244      1.5000     43.5000      0.0000
    45     1     1      0.4244      1.5000     44.5000      0.0000
    46     1     1      0.4244      1.5000     45.5000      0.0000
    47     1     1      0.4244      1.5000     46.5000      0.0000
    48     1     1      0.4244      1.5000     47.5000      0.0000
    49     1     1      0.4244      1.5000     48.5000      0.0000
    50     1     1      0.4244      1.5000     49.5000      0.0000
    51     1     1      0.4244      1.5000     50.5000      0.0000
    52     1     1      0.4244      1.5000     51.5000      0.0000
    53     1     1      0.4244      1.5000     52.5000      0.0000
    54     1     1      0.4244      1.5000     53.5000      0.0000
    55     1     1      0.4244      1.5000     54.5000      0.0000
    56     1     1      0.4244      1.5000     55.5000      0.0000
    57     1     1      0.4244      1.5000     56.5000      0.0000
    58     1     1      0.4244      1.5000     57.5000      0.0000
    59     1     1      0.4244      1.5000     58.5000      0.0000
    60     1     1      0.4244      1.5000     59.5000      0.0000
    61     1     1      0.4244      1.5000     60.5000      0.0000
    62     1     1      0.4244      1.5000     61.5000      0.0000
    63     1     1      0.4244      1.5000     62.5000      0.0000
    64     1     1      0.4244      1.5000     63.5000      0.0000
    65     1     1      0.4244      1.5000     64.5000      0.0000
    66     1     1      0.4244      1.5000     65.5000      0.0000
    67     1     1      0.4244      1.5000     66.5000      0.0000
    68     1     1      0.4244      1.5000     67.5000      0.0000
    69     1     1      0.4244      1.5000     68.5000      0.0000
    70     1     1      0.4244      1.5000     69.5000      0.0000
    71     1     1      0.4244      1.5000     70.5000      0.0000
    72     1     1      0.4244      1.5000     71.5000      0.0000
    73     1     1      0.4244      1.5000     72.5000      0.0000
    74     1     1      0.4244      1.5000     73.5000      0.0000
    75     1     1      0.4244      1.5000     74.5000      0.0000
    76     1     1      0.4244      1.5000     75.5000      0.0000
    77     1     1      0.4244      1.5000     76.5000      0.0000
    78     1     1      0.4244      1.5000     77.5000      0.0000
    79     1     1      0.4244      1.5000     78.5000      0.0000
    80     1     1      0.4244      1.5000     79.5000      0.0000
    81     1     1      0.4244      1.5000     80.5000      0.0000
    82     1     1      0.4244      1.5000     81.5000      0.0000
    83     1     1      0.4244      1.5000     82.5000      0.0000
    84     1     1      0.4244      1.5000     83.5000      0.0000
    85     1     1      0.4244      1.5000     84.5000      0.0000
    86     1     1      0.4244      1.5000     85.5000      0.0000
    87     1     1      0.4244      1.5000     86.5000      0.0000
    88     1     1      0.4244      1.5000     87.5000      0.0000
    89     1     1      0.4244      1.5000     88.5000      0.0000
    90     1     1      0.4244      1.5000     89.5000      0.0000
    91     1     1      0.4244      1.5000     90.5000      0.0000
    92     1     1      0.4244      1.5000     91.5000      0.0000
    93     1     1      0.4244      1.5000     92.5000      0.0000
    94     1     1      0.4244      1.5000     93.5000      0.0000
    95     1     1      0.4244      1.5000     94.5000      0.0000
    96     1     1      0.4244      1.5000     95.5000      0.0000
    97     1     1      0.4244      1.5000     96.5000      0.0000
    98     1     1      0.4244      1.5000     97.5000      0.0000
    99     1     1      0.4244      1.5000     98.5000      0.0000
   100     1     1      0.4244      1.5000     99.5000      0.0000
   101     1     1      0.4244      1.5000    100.5000      0.0000
   102     1     1      0.4244      1.5000    101.5000      0.0000
   103     1     1      0.4244      1.5000    102.5000      0.0000
   104     1     1      0.4244      1.5000    103.5000      0.0000
   105     1     1      0.4244      1.5000    104.5000      0.0000
   106     1     1      0.4244      1.5000    105.5000      0.0000
   107     1     1      0.4244      1.5000    106.5000      0.0000
   108     1     1      0.4244      1.5000    107.5000      0.0000
   109     1     1      0.4244      1.5000    108.5000      0.0000
   110     1     1      0.4244      1.5000    109.5000      0.0000
   111     1     1      0.4244      1.5000    110.5000      0.0000
   112     1     1      0.4244      1.5000    111.5000      0.0000
   113     1     1      0.4244      1.5000    112.5000      0.0000
   114     1     1      0.4244      1.5000    113.5000      0.0000
   115     1     1      0.4244      1.5000    114.5000      0.0000
   116     1     1      0.4244      1.5000    115.5000      0.0000
   117     1     1      0.4244      1.5000    116.5000      0.0000
   118     1     1      0.4244      1.5000    117.5000      0.0000
   119     1     1      0.4244      1.5000    118.5000      0.0000
   120     1     1      0.4244      1.5000    119.5000      0.0000
   121     1     1      0.4244      1.5000    120.5000      0.0000
   122     1     1      0.4244      1.5000    121.5000      0.0000
   123     1     1      0.4244      1.5000    122.5000      0.0000
   124     1     1      0.4244      1.5000    123.5000      0.0000
   125     1     1      0.4244      1.5000    124.5000      0.0000
   126     1     1      0.4244      1.5000    125.5000      0.0000
   127     1     1      0.4244      1.5000    126.5000      0.0000
   128     1     1      0.4244      1.5000    127.5000      0.0000
   129     1     1      0.4244      1.5000    128.5000      0.0000
   130     1     1      0.4244      1.5000    129.5000      0.0000
   131     1     1      0.4244      1.5000    130.5000      0.0000
   132     1     1      0.4244      1.5000    131.5000      0.0000
   133     1     1      0.4244      1.5000    132.5000      0.0000
   134     1     1      0.4244      1.5000    133.5000      0.0000
   135     1     1      0.4244      1.5000    134.5000      0.0000
   136     1     1      0.4244      1.5000    135.5000      0.0000
   137     1     1      0.4244      1.5000    136.5000      0.0000
   138     1     1      0.4244      1.5000    137.5000      0.0000
   139     1     1      0.4244      1.5000    138.5000      0.0000
   140     1     1      0.4244      1.5000    139.5000      0.0000
   141     1     1      0.4244      1.5000    140.5000      0.0000
   142     1     1      0.4244      1.5000    141.5000      0.0000
   143     1     1      0.4244      1.5000    142.5000      0.0000
   144     1     1      0.4244      1.5000    143.5000      0.0000
   145     1     1      0.4244      1.5000    144.5000      0.0000
   146     1     1      0.4244      1.5000    145.5000      0.0000
   147     1     1      0.4244      1.5000    146.5000      0.0000
   148     1     1      0.4244      1.5000    147.5000      0.0000
   149     1     1      0.4244      1.5000    148.5000      0.0000
   150     1     1      0.4244      1.5000    149.5000      0.0000
   151     1     1      0.4244      4.5000      0.5000      0.0000
   152     1     1      0.4244      4.5000      1.5000      0.0000
   153     1     1      0.4244      4.5000      2.5000      0.0000
   154     1     1      0.4244      4.5000      3.5000      0.0000
   155     1     1      0.4244      4.5000      4.5000      0.0000
   156     1     1      0.4244      4.5000      5.5000      0.0000
   157     1     1      0.4244      4.5000      6.5000      0.0000
   158     1     1      0.4244      4.5000      7.5000      0.0000
   159     1     1      0.4244      4.5000      8.5000      0.0000
   160     1     1      0.4244      4.5000      9.5000      0.0000
   161     1     1      0.4244      4.5000     10.5000      0.0000
   162     1     1      0.4244      4.5000     11.5000      0.0000
   163     1     1      0.4244      4.5000     12.5000      0.0000
   164     1     1      0.4244      4.5000     13.5000      0.0000
   165     1     1      0.4244      4.5000     14.5000      0.0000
   166     1     1      0.4244      4.5000     15.5000      0.0000
   167     1     1      0.4244      4.5000     16.5000      0.0000
   168     1     1      0.4244      4.5000     17.5000      0.0000
   169     1     1      0.4244      4.5000     18.5000      0.0000
   170     1     1      0.4244      4.5000     19.5000      0.0000
   171     1     1      0.4244      4.5000     20.5000      0.0000
   172     1     1      0.4244      4.5000     21.5000      0.0000
   173     1     1      0.4244      4.5000     22.5000      0.0000
   174     1     1      0.4244      4.5000     23.5000      0.0000
   175     1     1      0.4244      4.5000     24.5000      0.0000
   176     1     1      0.4244      4.5000     25.5000      0.0000
   177     1     1      0.4244      4.5000     26.5000      0.0000
   178     1     1      0.4244      4.5000     27.5000      0.0000
   179     1     1      0.4244      4.5000     28.5000      0.0000
   180     1     1      0.4244      4.5000     29.5000      0.0000
   181     1     1      0.4244      4.5000     30.5000      0.0000
   182     1     1      0.4244      4.5000     31.5000      0.0000
   183     1     1      0.4244      4.5000     32.5000      0.0000
   184     1     1      0.4244      4.5000     33.5000      0.0000
   185     1     1      0.4244      4.5000     34.5000      0.0000
   186     1     1      0.4244      4.5000     35.5000      0.0000
   187     1     1      0.4244      4.5000     36.5000      0.0000
   188     1     1      0.4244      4.5000     37.5000      0.0000
   189     1     1      0.4244      4.5000     38.5000      0.0000
   190     1     1      0.4244      4.5000     39.5000      0.0000
   191     1     1      0.4244      4.5000     40.5000      0.0000
   192     1     1      0.4244      4.5000     41.5000      0.0000
   193     1     1      0.4244      4.5000     42.5000      0.0000
   194     1     1      0.4244      4.5000     43.5000      0.0000
   195     1     1      0.4244      4.5000     44.5000      0.0000
   196     1     1      0.4244      4.5000     45.5000      0.0000
   197     1     1      0.4244      4.5000     46.5000      0.0000
   198     1     1      0.4244      4.5000     47.5000      0.0000
   199     1     1      0.4244      4.5000     48.5000      0.0000
   200     1     1      0.4244      4.5000     49.5000      0.0000
   201     1     1      0.4244      4.5000     50.5000      0.0000
   202     1     1      0.4244      4.5000     51.5000      0.0000
   203     1     1      0.4244      4.5000     52.5000      0.0000
   204     1     1      0.4244      4.5000     53.5000      0.0000
   205     1     1      0.4244      4.5000     54.5000      0.0000
   206     1     1      0.4244      4.5000     55.5000      0.0000
   207     1     1      0.4244      4.5000     56.5000      0.0000
   208     1     1      0.4244      4.5000     57.5000      0.0000
   209     1     1      0.4244      4.5000     58.5000      0.0000
   210     1     1      0.4244      4.5000     59.5000      0.0000
   211     1     1      0.4244      4.5000     60.5000      0.0000
   212     1     1      0.4244      4.5000     61.5000      0.0000
   213     1     1      0.4244      4.5000     62.5000      0.0000
   214     1     1      0.4244      4.5000     63.5000      0.0000
   215     1     1      0.4244      4.5000     64.5000      0.0000
   216     1     1      0.4244      4.5000     65.5000      0.0000
   217     1     1      0.4244      4.5000     66.5000      0.0000
   218     1     1      0.4244      4.5000     67.5000      0.0000
   219     1     1      0.4244      4.5000     68.5000      0.0000
   220     1     1      0.4244      4.5000     69.5000      0.0000
   221     1     1      0.4244      4.5000     70.5000      0.0000
   222     1     1      0.4244      4.5000     71.5000      0.0000
   223     1     1      0.4244      4.5000     72.5000      0.0000
   224     1     1      0.4244      4.5000     73.5000      0.0000
   225     1     1      0.4244      4.5000     74.5000      0.0000
   226     1     1      0.4244      4.5000     75.5000      0.0000
   227     1     1      0.4244      4.5000     76.5000      0.0000
   228     1     1      0.4244      4.5000     77.5000      0.0000
   229     1     1      0.4244      4.5000     78.5000      0.0000
   230     1     1      0.4244      4.5000     79.5000      0.0000
   231     1     1      0.4244      4.5000     80.5000      0.0000
   232     1     1      0.4244      4.5000     81.5000      0.0000
   233     1     1      0.4244      4.5000     82.5000      0.0000
   234     1     1      0.4244      4.5000     83.5000      0.0000
   235     1     1      0.4244      4.5000     84.5000      0.0000
   236     1     1      0.4244      4.5000     85.5000      0.0000
   237     1     1      0.4244      4.5000     86.5000      0.0000
   238     1     1      0.4244      4.5000     87.5000      0.0000
   239     1     1      0.4244      4.5000     88.5000      0.0000
   240     1     1      0.4244      4.5000     89.5000      0.0000
   241     1     1      0.4244      4.5000     90.5000      0.0000
   242     1     1      0.4244      4.5000     91.5000      0.0000
   243     1     1      0.4244      4.5000     92.5000      0.0000
   244     1     1      0.4244      4.5000     93.5000      0.0000
   245     1     1      0.4244      4.5000     94.5000      0.0000
   246     1     1      0.4244      4.5000     95.5000      0.0000
   247     1     1      0.4244      4.5000     96.5000      0.0000
   248     1     1      0.4244      4.5000     97.5000      0.0000
   249     1     1      0.4244      4.5000     98.5000      0.0000
   250     1     1      0.4244      4.5000     99.5000      0.0000
   251     1     1      0.4244      4.5000    100.5000      0.0000
   252     1     1      0.4244      4.5000    101.5000      0.0000
   253     1     1      0.4244      4.5000    102.5000      0.0000
   254     1     1      0.4244      4.5000    103.5000      0.0000
   255     1     1      0.4244      4.5000    104.5000      0.0000
   256     1     1      0.4244      4.5000    105.5000      0.0000
   257     1     1      0.4244      4.5000    106.5000      0.0000
   258     1     1      0.4244      4.5000    107.5000      0.0000
   259     1     1      0.4244      4.5000    108.5000      0.0000
   260     1     1      0.4244      4.5000    109.5000      0.0000
   261     1     1      0.4244      4.5000    110.5000      0.0000
   262     1     1      0.4244      4.5000    111.5000      0.0000
   263     1     1      0.4244      4.5000    112.5000      0.0000
   264     1     1      0.4244      4.5000    113.5000      0.0000
   265     1     1      0.4244      4.5000    114.5000      0.0000
   266     1     1      0.4244      4.5000    115.5000      0.0000
   267     1     1      0.4244      4.5000    116.5000      0.0000
   268     1     1      0.4244      4.5000    117.5000      0.0000
   269     1     1      0.4244      4.5000    118.5000      0.0000
   270     1     1      0.4244      4.5000    119.5000      0.0000
   271     1     1      0.4244      4.5000    120.5000      0.0000
   272     1     1      0.4244      4.5000    121.5000      0.0000
   273     1     1      0.4244      4.5000    122.5000      0.0000
   274     1     1      0.4244      4.5000    123.5000      0.0000
   275     1     1      0.4244      4.5000    124.5000      0.0000
   276     1     1      0.4244      4.5000    125.5000      0.0000
   277     1     1      0.4244      4.5000    126.5000      0.0000
   278     1     1      0.4244      4.5000    127.5000      0.0000
   279     1     1      0.4244      4.5000    128.5000      0.0000
   280     1     1      0.4244      4.5000    129.5000      0.0000
   281     1     1      0.4244      4.5000    130.5000      0.0000
   282     1     1      0.4244      4.5000    131.5000      0.0000
   283     1     1      0.4244      4.5000    132.5000      0.0000
   284     1     1      0.4244      4.5000    133.5000      0.0000
   285     1     1      0.4244      4.5000    134.5000      0.0000
   286     1     1      0.4244      4.5000    135.5000      0.0000
   287     1     1      0.4244      4.5000    136.5000      0.0000
   288     1     1      0.4244      4.5000    137.5000      0.0000
   289     1     1      0.4244      4.5000    138.5000      0.0000
   290     1     1      0.4244      4.5000    139.5000      0.0000
   291     1     1      0.4244      4.5000    140.5000      0.0000
   292     1     1      0.4244      4.5000    141.5000      0.0000
   293     1     1      0.4244      4.5000    142.5000      0.0000
   294     1     1      0.4244      4.5000    143.5000      0.0000
   295     1     1      0.4244      4.5000    144.5000      0.0000
   296     1     1      0.4244      4.5000    145.5000      0.0000
   297     1     1      0.4244      4.5000    146.5000      0.0000
   298     1     1      0.4244      4.5000    147.5000      0.0000
   299     1     1      0.4244      4.5000    148.5000      0.0000
   300     1     1      0.4244      4.5000    149.5000      0.0000
   301     1     1      0.4244      7.5000      0.5000      0.0000
   302     1     1      0.4244      7.5000      1.5000      0.0000
   303     1     1      0.4244      7.5000      2.5000      0.0000
   304     1     1      0.4244      7.5000      3.5000      0.0000
   305     1     1      0.4244      7.5000      4.5000      0.0000
   306     1     1      0.4244      7.5000      5.5000      0.0000
   307     1     1      0.4244      7.5000      6.5000      0.0000
   308     1     1      0.4244      7.5000      7.5000      0.0000
   309     1     1      0.4244      7.5000      8.5000      0.0000
   310     1     1      0.4244      7.5000      9.5000      0.0000
   311     1     1      0.4244      7.5000     10.5000      0.0000
   312     1     1      0.4244      7.5000     11.5000      0.0000
   313     1     1      0.4244      7.5000     12.5000      0.0000
   314     1     1      0.4244      7.5000     13.5000      0.0000
   315     1     1      0.4244      7.5000     14.5000      0.0000
   316     1     1      0.4244      7.5000     15.5000      0.0000
   317     1     1      0.4244      7.5000     16.5000      0.0000
   318     1     1      0.4244      7.5000     17.5000      0.0000
   319     1     1      0.4244      7.5000     18.5000      0.0000
   320     1     1      0.4244      7.5000     19.5000      0.0000
   321     1     1      0.4244      7.5000     20.5000      0.0000
   322     1     1      0.4244      7.5000     21.5000      0.0000
   323     1     1      0.4244      7.5000     22.5000      0.0000
   324     1     1      0.4244      7.5000     23.5000      0.0000
   325     1     1      0.4244      7.5000     24.5000      0.0000
   326     1     1      0.4244      7.5000     25.5000      0.0000
   327     1     1      0.4244      7.5000     26.5000      0.0000
   328     1     1      0.4244      7.5000     27.5000      0.0000
   329     1     1      0.4244      7.5000     28.5000      0.0000
   330     1     1      0.4244      7.5000     29.5000      0.0000
   331     1     1      0.4244      7.5000     30.5000      0.0000
   332     1     1      0.4244      7.5000     31.5000      0.0000
   333     1     1      0.4244      7.5000     32.5000      0.0000
   334     1     1      0.4244      7.5000     33.5000      0.0000
   335     1     1      0.4244      7.5000     34.5000      0.0000
   336     1     1      0.4244      7.5000     35.5000      0.0000
   337     1     1      0.4244      7.5000     36.5000      0.0000
   338     1     1      0.4244      7.5000     37.5000      0.0000
   339     1     1      0.4244      7.5000     38.5000      0.0000
   340     1     1      0.4244      7.5000     39.5000      0.0000
   341     1     1      0.4244      7.5000     40.5000      0.0000
   342     1     1      0.4244      7.5000     41.5000      0.0000
   343     1     1      0.4244      7.5000     42.5000      0.0000
   344     1     1      0.4244      7.5000     43.5000      0.0000
   345     1     1      0.4244      7.5000     44.5000      0.0000
   346     1     1      0.4244      7.5000     45.5000      0.0000
   347     1     1      0.4244      7.5000     46.5000      0.0000
   348     1     1      0.4244      7.5000     47.5000      0.0000
   349     1     1      0.4244      7.5000     48.5000      0.0000
   350     1     1      0.4244      7.5000     49.5000      0.0000
   351     1     1      0.4244      7.5000     50.5000      0.0000
   352     1     1      0.4244      7.5000     51.5000      0.0000
   353     1     1      0.4244      7.5000     52.5000      0.0000
   354     1     1      0.4244      7.5000     53.5000      0.0000
   355     1     1      0.4244      7.5000     54.5000      0.0000
   356     1     1      0.4244      7.5000     55.5000      0.0000
   357     1     1      0.4244      7.5000     56.5000      0.0000
   358     1     1      0.4244      7.5000     57.5000      0.0000
   359     1     1      0.4244      7.5000     58.5000      0.0000
   360     1     1      0.4244      7.5000     59.5000      0.0000
   361     1     1      0.4244      7.5000     60.5000      0.0000
   362     1     1      0.4244      7.5000     61.5000      0.0000
   363     1     1      0.4244      7.5000     62.5000      0.0000
   364     1     1      0.4244      7.5000     63.5000      0.0000
   365     1     1      0.4244      7.5000     64.5000      0.0000
   366     1     1      0.4244      7.5000     65.5000      0.0000
   367     1     1      0.4244      7.5000     66.5000      0.0000
   368     1     1      0.4244      7.5000     67.5000      0.0000
   369     1     1      0.4244      7.5000     68.5000      0.0000
   370     1     1      0.4244      7.5000     69.5000      0.0000
   371     1     1      0.4244      7.5000     70.5000      0.0000
   372     1     1      0.4244      7.5000     71.5000      0.0000
   373     1     1      0.4244      7.5000     72.5000      0.0000
   374     1     1      0.4244      7.5000     73.5000      0.0000
   375     1     1      0.4244      7.5000     74.5000      0.0000
   376     1     1      0.4244      7.5000     75.5000      0.0000
   377     1     1      0.4244      7.5000     76.5000      0.0000
   378     1     1      0.4244      7.5000     77.5000      0.0000
   379     1     1      0.4244      7.5000     78.5000      0.0000
   380     1     1      0.4244      7.5000     79.5000      0.0000
   381     1     1      0.4244      7.5000     80.5000      0.0000
   382     1     1      0.4244      7.5000     81.5000      0.0000
   383     1     1      0.4244      7.5000     82.5000      0.0000
   384     1     1      0.4244      7.5000     83.5000      0.0000
   385     1     1      0.4244      7.5000     84.5000      0.0000
   386     1     1      0.4244      7.5000     85.5000      0.0000
   387     1     1      0.4244      7.5000     86.5000      0.0000
   388     1     1      0.4244      7.5000     87.5000      0.0000
   389     1     1      0.4244      7.5000     88.5000      0.0000
   390     1     1      0.4244      7.5000     89.5000      0.0000
   391     1     1      0.4244      7.5000     90.5000      0.0000
   392     1     1      0.4244      7.5000     91.5000      0.0000
   393     1     1      0.4244      7.5000     92.5000      0.0000
   394     1     1      0.4244      7.5000     93.5000      0.0000
   395     1     1      0.4244      7.5000     94.5000      0.0000
   396     1     1      0.4244      7.5000     95.5000      0.0000
   397     1     1      0.4244      7.5000     96.5000      0.0000
   398     1     1      0.4244      7.5000     97.5000      0.0000
   399     1     1      0.4244      7.5000     98.5000      0.0000
   400     1     1      0.4244      7.5000     99.5000      0.0000
   401     1     1      0.4244      7.5000    100.5000      0.0000
   402     1     1      0.4244      7.5000    101.5000      0.0000
   403     1     1      0.4244      7.5000    102.5000      0.0000
   404     1     1      0.4244      7.5000    103.5000      0.0000
   405     1     1      0.4244      7.5000    104.5000      0.0000
   406     1     1      0.4244      7.5000    105.5000      0.0000
   407     1     1      0.4244      7.5000    106.5000      0.0000
   408     1     1      0.4244      7.5000    107.5000      0.0000
   409     1     1      0.4244      7.5000    108.5000      0.0000
   410     1     1      0.4244      7.5000    109.5000      0.0000
   411     1     1      0.4244      7.5000    110.5000      0.0000
   412     1     1      0.4244      7.5000    111.5000      0.0000
   413     1     1      0.4244      7.5000    112.5000      0.0000
   414     1     1      0.4244      7.5000    113.5000      0.0000
   415     1     1      0.4244      7.5000    114.5000      0.0000
   416     1     1      0.4244      7.5000    115.5000      0.0000
   417     1     1      0.4244      7.5000    116.5000      0.0000
   418     1     1      0.4244      7.5000    117.5000      0.0000
   419     1     1      0.4244      7.5000    118.5000      0.0000
   420     1     1      0.4244      7.5000    119.5000      0.0000
   421     1     1      0.4244      7.5000    120.5000      0.0000
   422     1     1      0.4244      7.5000    121.5000      0.0000
   423     1     1      0.4244      7.5000    122.5000      0.0000
   424     1     1      0.4244      7.5000    123.5000      0.0000
   425     1     1      0.4244      7.5000    124.5000      0.0000
   426     1     1      0.4244      7.5000    125.5000      0.0000
   427     1     1      0.4244      7.5000    126.5000      0.0000
   428     1     1      0.4244      7.5000    127.5000      0.0000
   429     1     1      0.4244      7.5000    128.5000      0.0000
   430     1     1      0.4244      7.5000    129.5000      0.0000
   431     1     1      0.4244      7.5000    130.5000      0.0000
   432     1     1      0.4244      7.5000    131.5000      0.0000
   433     1     1      0.4244      7.5000    132.5000      0.0000
   434     1     1      0.4244      7.5000    133.5000      0.0000
   435     1     1      0.4244      7.5000    134.5000      0.0000
   436     1     1      0.4244      7.5000    135.5000      0.0000
   437     1     1      0.4244      7.5000    136.5000      0.0000
   438     1     1      0.4244      7.5000    137.5000      0.0000
   439     1     1      0.4244      7.5000    138.5000      0.0000
   440     1     1      0.4244      7.5000    139.5000      0.0000
   441     1     1      0.4244      7.5000    140.5000      0.0000
   442     1     1      0.4244      7.5000    141.5000      0.0000
   443     1     1      0.4244      7.5000    142.5000      0.0000