LAMMPS data file via write_data, version 22 Aug 2018, timestep = 50256

66 atoms
2 atom types
29 bonds
1 bond types
28 angles
1 angle types

-3.5000000000000000e+01 3.5000000000000000e+01 xlo xhi
-3.5000000000000000e+01 3.5000000000000000e+01 ylo yhi
-5.0000000000000000e-01 5.0000000000000000e-01 zlo zhi

Masses

1 1
2 1

Pair Coeffs # soft

1 10000
2 10000

Bond Coeffs # harmonic

1 5000 1.05

Angle Coeffs # actharmonic

1 100 180 0.1

Atoms # angle

48 2 2 -3.0944610438447441e+01 -3.4475102187057971e+01 0.0000000000000000e+00 0 0 0
42 2 2 -1.9782666553963935e+01 -2.8788075310535675e+01 0.0000000000000000e+00 0 0 0
53 2 2 -2.2672879391371086e+00 -3.3440308588990860e+01 0.0000000000000000e+00 0 1 0
34 2 2 8.2535246324234119e+00 -2.8682917244054124e+01 0.0000000000000000e+00 0 1 0
66 2 2 -8.8570908689810608e+00 -2.4237127253275244e+01 0.0000000000000000e+00 0 0 0
61 2 2 1.7992159400088813e+01 -2.2626574634376297e+01 0.0000000000000000e+00 0 0 0
54 2 2 2.8114637737285651e+01 -2.8282400789683251e+01 0.0000000000000000e+00 0 0 0
49 2 2 -3.1257148915017176e+01 -2.2260279718973486e+01 0.0000000000000000e+00 0 0 0
56 2 2 -1.8761639532230980e+01 -1.6995089942170900e+01 0.0000000000000000e+00 0 0 0
47 2 2 1.6590694021479100e+00 -1.9005579801738840e+01 0.0000000000000000e+00 0 0 0
46 2 2 -2.8608265276467844e+01 -1.1327267979942082e+01 0.0000000000000000e+00 0 0 0
63 2 2 -8.2883562609243864e+00 -1.2630201593323052e+01 0.0000000000000000e+00 0 0 0
62 2 2 1.2621563825480994e+01 -1.2227115035963900e+01 0.0000000000000000e+00 0 0 0
31 2 2 2.6580925218524300e+01 -1.4815264586729350e+01 0.0000000000000000e+00 0 0 0
33 2 2 -1.8709589122585818e+01 -4.6235141333321783e+00 0.0000000000000000e+00 0 0 0
1 1 1 -2.9720840096021641e+00 -5.2024911714316264e+00 0.0000000000000000e+00 0 0 0
45 2 2 2.2919833245777737e+00 -7.6591729855362711e+00 0.0000000000000000e+00 0 0 0
2 1 1 -2.3901928560491328e+00 -4.4028793694943626e+00 0.0000000000000000e+00 0 0 0
3 1 1 -1.7718285779765615e+00 -3.5081087825736303e+00 0.0000000000000000e+00 0 0 0
38 2 2 3.1856254531070633e+01 -4.7227948399988211e+00 0.0000000000000000e+00 0 0 0
43 2 2 -2.8085308215961000e+01 1.8464608681565737e+00 0.0000000000000000e+00 0 0 0
44 2 2 -6.9575495508036784e+00 -9.8068712528845337e-01 0.0000000000000000e+00 0 0 0
4 1 1 -1.0665244071064321e+00 -2.5886347568382306e+00 0.0000000000000000e+00 0 0 0
5 1 1 -3.1760462378583393e-01 -2.0134158316355673e+00 0.0000000000000000e+00 0 0 0
6 1 1 7.5980583263353030e-01 -1.6158248782823763e+00 0.0000000000000000e+00 0 0 0
7 1 1 1.7212005594799695e+00 -1.5306127285101077e+00 0.0000000000000000e+00 0 0 0
8 1 1 2.8880438209832771e+00 -1.7185525933475143e+00 0.0000000000000000e+00 0 0 0
9 1 1 3.8513443434113532e+00 -2.0805674076783074e+00 0.0000000000000000e+00 0 0 0
10 1 1 4.9134946247342537e+00 -2.4925225058937612e+00 0.0000000000000000e+00 0 0 0
11 1 1 6.0806640992904715e+00 -2.8655925354293217e+00 0.0000000000000000e+00 0 0 0
12 1 1 7.1098424655102272e+00 -2.9247076910819327e+00 0.0000000000000000e+00 0 0 0
13 1 1 8.3297942471771780e+00 -2.6733971058180406e+00 0.0000000000000000e+00 0 0 0
14 1 1 9.3002536121740640e+00 -2.2666006434077932e+00 0.0000000000000000e+00 0 0 0
50 2 2 6.4245987369621140e+00 3.1208389418799540e+00 0.0000000000000000e+00 0 0 0
15 1 1 1.0368016632117621e+01 -1.6163075171988552e+00 0.0000000000000000e+00 0 0 0
16 1 1 1.1233146029120849e+01 -1.0304281837020650e+00 0.0000000000000000e+00 0 0 0
17 1 1 1.2242296911026932e+01 -3.2354500790619234e-01 0.0000000000000000e+00 0 0 0
18 1 1 1.3084666788260780e+01 2.4632979071341865e-01 0.0000000000000000e+00 0 0 0
19 1 1 1.4072611262881479e+01 9.3389401442142594e-01 0.0000000000000000e+00 0 0 0
20 1 1 1.4900261434290535e+01 1.4943009126739295e+00 0.0000000000000000e+00 0 0 0
21 1 1 1.5870411984127101e+01 2.1809890202800943e+00 0.0000000000000000e+00 0 0 0
41 2 2 2.0942449372944424e+01 -1.7569061342159629e+00 0.0000000000000000e+00 0 0 0
22 1 1 1.6703568392055232e+01 2.7138125842108467e+00 0.0000000000000000e+00 0 0 0
30 1 1 2.4816376934223811e+01 2.9890087170635957e+00 0.0000000000000000e+00 0 0 0
55 2 2 -1.7508708601682667e+01 6.9979387968450588e+00 0.0000000000000000e+00 0 0 0
23 1 1 1.7768477079931806e+01 3.2404742889449656e+00 0.0000000000000000e+00 0 0 0
24 1 1 1.8695990982955689e+01 3.6428944079615877e+00 0.0000000000000000e+00 0 0 0
25 1 1 1.9809280948388182e+01 4.1107455791382543e+00 0.0000000000000000e+00 0 0 0
26 1 1 2.0866194377346311e+01 4.3590125125084311e+00 0.0000000000000000e+00 0 0 0
27 1 1 2.1854234825466474e+01 4.3306885279732246e+00 0.0000000000000000e+00 0 0 0
60 2 2 1.6258480269923741e+01 8.9528599496259798e+00 0.0000000000000000e+00 0 0 0
29 1 1 2.3874683435622334e+01 3.6519683532866680e+00 0.0000000000000000e+00 0 0 0
28 1 1 2.2991798784355744e+01 4.0414391193363288e+00 0.0000000000000000e+00 0 0 0
39 2 2 2.9542052235129269e+01 6.8060589177254007e+00 0.0000000000000000e+00 0 0 0
58 2 2 -2.7517843251837515e+01 1.3321731940831455e+01 0.0000000000000000e+00 0 0 0
37 2 2 -5.7362521846185128e+00 1.0338775811423234e+01 0.0000000000000000e+00 0 0 0
40 2 2 5.3228997803852609e+00 1.5869783004459466e+01 0.0000000000000000e+00 0 0 0
51 2 2 -1.5010129702943569e+01 1.8716639842914134e+01 0.0000000000000000e+00 0 0 0
59 2 2 1.7687592574334779e+01 2.2159868154279408e+01 0.0000000000000000e+00 0 0 0
32 2 2 2.9068653890321546e+01 1.7984964922029672e+01 0.0000000000000000e+00 0 0 0
52 2 2 -2.4942187109063973e+01 2.6002356706727092e+01 0.0000000000000000e+00 0 0 0
57 2 2 -4.3230561815728556e+00 2.2491308794157177e+01 0.0000000000000000e+00 0 0 0
36 2 2 5.6944836085964834e+00 2.8285493144347150e+01 0.0000000000000000e+00 0 0 0
65 2 2 -1.2484410865184925e+01 3.0654669091097418e+01 0.0000000000000000e+00 0 0 0
35 2 2 1.7277281899425979e+01 3.4013291697216211e+01 0.0000000000000000e+00 0 0 0
64 2 2 2.8004990993764537e+01 3.0273957054795151e+01 0.0000000000000000e+00 -1 0 0

Velocities

48 1.4829114683267056e-01 1.3420035682162454e-01 0.0000000000000000e+00
42 -9.1409999699694322e-02 -1.7788820071860273e-01 0.0000000000000000e+00
53 8.1293702832050521e-02 1.8273295783698756e-01 0.0000000000000000e+00
34 1.4204668387842928e-01 1.4079325125566772e-01 0.0000000000000000e+00
66 -1.4642738529284294e-01 1.3623149722549965e-01 0.0000000000000000e+00
61 9.5923520917500379e-02 1.7549552169440072e-01 0.0000000000000000e+00
54 -1.9055800229728911e-01 -6.0726005635694302e-02 0.0000000000000000e+00
49 -1.9598261119520546e-01 3.9885036155291813e-02 0.0000000000000000e+00
56 -1.5652027036043903e-01 1.2450463833245359e-01 0.0000000000000000e+00
47 1.4604466897285831e-01 1.3664170177734264e-01 0.0000000000000000e+00
46 -1.9994288695976734e-01 4.7793257049201588e-03 0.0000000000000000e+00
63 -5.7218740977698419e-02 -1.9164032895225125e-01 0.0000000000000000e+00
62 -6.2176815582059633e-02 -1.9008956732044646e-01 0.0000000000000000e+00
31 1.8676220647415140e-01 -7.1553324401501098e-02 0.0000000000000000e+00
33 1.3397764146644503e-01 1.4849239572142645e-01 0.0000000000000000e+00
1 -1.1743196093137591e-01 -1.6189420790075168e-01 0.0000000000000000e+00
45 1.8921980370408414e-01 6.4775503750938684e-02 0.0000000000000000e+00
2 1.0913581187935047e-01 1.6759885013160153e-01 0.0000000000000000e+00
3 1.3343250441886098e-01 1.4898243777207654e-01 0.0000000000000000e+00
38 -6.2085829050695894e-02 1.9011930420419640e-01 0.0000000000000000e+00
43 1.2245090306631121e-01 1.5813214833880196e-01 0.0000000000000000e+00
44 -1.9796233727171586e-01 -2.8476534584099707e-02 0.0000000000000000e+00
4 -1.4691802798182732e-01 -1.3570222199334472e-01 0.0000000000000000e+00
5 1.7721511602428372e-01 9.2708158500207888e-02 0.0000000000000000e+00
6 -1.9302891046610507e-01 -5.2343478335590270e-02 0.0000000000000000e+00
7 1.9980343588370839e-01 -8.8649314190711904e-03 0.0000000000000000e+00
8 -1.9301610529200511e-01 5.2390677585860621e-02 0.0000000000000000e+00
9 1.8545109889406999e-01 -7.4885845918850918e-02 0.0000000000000000e+00
10 1.9661600441142113e-01 -3.6635321880502662e-02 0.0000000000000000e+00
11 -1.9762353032824648e-01 3.0739880621119077e-02 0.0000000000000000e+00
12 1.9976809099535484e-01 9.6285938782167350e-03 0.0000000000000000e+00
13 -1.9208702017104268e-01 -5.5700778107755797e-02 0.0000000000000000e+00
14 1.8003802267647909e-01 8.7099428188384842e-02 0.0000000000000000e+00
50 -5.5498272013596910e-02 -1.9214562655315581e-01 0.0000000000000000e+00
15 -1.7100822547252428e-01 -1.0371203797408621e-01 0.0000000000000000e+00
16 1.6038850133984847e-01 1.1948024371400247e-01 0.0000000000000000e+00
17 -1.6627546329756207e-01 -1.1114166772718996e-01 0.0000000000000000e+00
18 1.6482184088579763e-01 1.1328618965706640e-01 0.0000000000000000e+00
19 -1.6536957833376867e-01 -1.1248512151263182e-01 0.0000000000000000e+00
20 1.6423465835104245e-01 1.1413578315461093e-01 0.0000000000000000e+00
21 -1.6400337847140137e-01 -1.1446786383071142e-01 0.0000000000000000e+00
41 -1.9181612186351701e-01 -5.6626631484138296e-02 0.0000000000000000e+00
22 1.7414788599144512e-01 9.8348939011616412e-02 0.0000000000000000e+00
30 -1.7113099183193867e-01 1.0350934080853258e-01 0.0000000000000000e+00
55 -1.9754186092753148e-01 -3.1260409166992922e-02 0.0000000000000000e+00
23 -1.7793284054625391e-01 -9.1323076246594900e-02 0.0000000000000000e+00
24 1.8388342447051365e-01 7.8656761978846523e-02 0.0000000000000000e+00
25 -1.7926797208746367e-01 -8.8673525832958525e-02 0.0000000000000000e+00
26 -1.9957003895266134e-01 1.3107232828985911e-02 0.0000000000000000e+00
27 1.9669249281613888e-01 -3.6222413914221194e-02 0.0000000000000000e+00
60 -8.4472549621808946e-02 -1.8128537823109458e-01 0.0000000000000000e+00
29 1.7697035323257587e-01 -9.3174535559547245e-02 0.0000000000000000e+00
28 -1.8705906874730086e-01 7.0773616548771776e-02 0.0000000000000000e+00
39 7.5813953609924446e-03 -1.9985625445399582e-01 0.0000000000000000e+00
58 -1.9843759238240954e-01 2.4950389365151746e-02 0.0000000000000000e+00
37 -1.2247529640057699e-01 -1.5811325615390640e-01 0.0000000000000000e+00
40 1.2962569154076795e-01 -1.5230620503635983e-01 0.0000000000000000e+00
51 1.2308941809951207e-01 -1.5763564048756082e-01 0.0000000000000000e+00
59 1.6485191334195085e-01 1.1324242432718373e-01 0.0000000000000000e+00
32 -6.4447770133564206e-03 1.9989613515335439e-01 0.0000000000000000e+00
52 -1.1651383412007177e-01 -1.6255622553024662e-01 0.0000000000000000e+00
57 -5.6137901829333850e-03 1.9992119787501778e-01 0.0000000000000000e+00
36 8.2642588561053471e-02 1.8212688586787082e-01 0.0000000000000000e+00
65 -1.9961209512502165e-01 1.2450360629288094e-02 0.0000000000000000e+00
35 7.6029384886152115e-02 1.8498522274450291e-01 0.0000000000000000e+00
64 9.2883522838587113e-02 1.7712326551047344e-01 0.0000000000000000e+00

Bonds

1 1 1 2
2 1 2 3
3 1 3 4
4 1 4 5
5 1 5 6
6 1 6 7
7 1 7 8
8 1 8 9
9 1 9 10
10 1 10 11
11 1 11 12
12 1 12 13
13 1 13 14
14 1 14 15
15 1 15 16
16 1 16 17
17 1 17 18
18 1 18 19
19 1 19 20
20 1 20 21
21 1 21 22
22 1 22 23
23 1 23 24
24 1 24 25
25 1 25 26
26 1 26 27
27 1 27 28
28 1 29 30
29 1 28 29

Angles

1 1 1 2 3
2 1 2 3 4
3 1 3 4 5
4 1 4 5 6
5 1 5 6 7
6 1 6 7 8
7 1 7 8 9
8 1 8 9 10
9 1 9 10 11
10 1 10 11 12
11 1 11 12 13
12 1 12 13 14
13 1 13 14 15
14 1 14 15 16
15 1 15 16 17
16 1 16 17 18
17 1 17 18 19
18 1 18 19 20
19 1 19 20 21
20 1 20 21 22
21 1 21 22 23
22 1 22 23 24
23 1 23 24 25
24 1 24 25 26
25 1 25 26 27
26 1 26 27 28
27 1 28 29 30
28 1 27 28 29
