LAMMPS (22 Aug 2018)
#!/bin/sh

# Setup
echo		screen
  orthogonal box = (-35 -35 -0.5) to (35 35 0.5)
  1 by 1 by 1 MPI processor grid
  reading atoms ...
  30 atoms
  scanning bonds ...
  2 = max bonds/atom
  scanning angles ...
  3 = max angles/atom
  reading bonds ...
  29 bonds
  reading angles ...
  28 angles
  2 = max # of 1-2 neighbors
  2 = max # of 1-3 neighbors
  4 = max # of 1-4 neighbors
  6 = max # of special neighbors
  orthogonal box = (-35 -35 -0.5) to (35 35 0.5)
  1 by 1 by 1 MPI processor grid
  reading atoms ...
  36 atoms
  2 = max # of 1-2 neighbors
  2 = max # of 1-3 neighbors
  4 = max # of 1-4 neighbors
  6 = max # of special neighbors
30 atoms in group Chain
36 atoms in group Obs
WARNING: Using 'neigh_modify every 1 delay 0 check yes' setting during minimization (../min.cpp:168)
Neighbor list info ...
  update every 1 steps, delay 0 steps, check yes
  max neighbors/atom: 2000, page size: 100000
  master list distance cutoff = 12.68
  ghost atom cutoff = 12.68
  binsize = 6.34, bins = 12 12 1
  1 neighbor lists, perpetual/occasional/extra = 1 0 0
  (1) pair soft, perpetual
      attributes: half, newton off
      pair build: half/bin/newtoff
      stencil: half/bin/2d/newtoff
      bin: standard
Per MPI rank memory allocation (min/avg/max) = 6.927 | 6.927 | 6.927 Mbytes
Step Temp E_pair E_mol TotEng Press 
       0            0            0    549.50601    549.50601    6.0441818 
     656            0            0  0.030536008  0.030536008 -0.0077734902 
Loop time of 0.0272579 on 1 procs for 656 steps with 66 atoms

97.6% CPU use with 1 MPI tasks x no OpenMP threads

Minimization stats:
  Stopping criterion = linesearch alpha is zero
  Energy initial, next-to-last, final = 
         549.506008106     0.030536007922     0.030536007922
  Force two-norm initial, final = 23906.1 22.4441
  Force max component initial, final = 6245.47 9.03346
  Final line search alpha, max atom move = 1.7173e-09 1.55132e-08
  Iterations, force evaluations = 656 1442

MPI task timing breakdown:
Section |  min time  |  avg time  |  max time  |%varavg| %total
---------------------------------------------------------------
Pair    | 0.017799   | 0.017799   | 0.017799   |   0.0 | 65.30
Bond    | 0.0044844  | 0.0044844  | 0.0044844  |   0.0 | 16.45
Neigh   | 0.0019896  | 0.0019896  | 0.0019896  |   0.0 |  7.30
Comm    | 0.00056529 | 0.00056529 | 0.00056529 |   0.0 |  2.07
Output  | 0          | 0          | 0          |   0.0 |  0.00
Modify  | 0          | 0          | 0          |   0.0 |  0.00
Other   |            | 0.002419   |            |       |  8.88

Nlocal:    66 ave 66 max 66 min
Histogram: 1 0 0 0 0 0 0 0 0 0
Nghost:    35 ave 35 max 35 min
Histogram: 1 0 0 0 0 0 0 0 0 0
Neighs:    186 ave 186 max 186 min
Histogram: 1 0 0 0 0 0 0 0 0 0

Total # of neighbors = 186
Ave neighs/atom = 2.81818
Ave special neighs/atom = 2.54545
Neighbor list builds = 131
Dangerous builds = 0
Per MPI rank memory allocation (min/avg/max) = 5.802 | 5.802 | 5.802 Mbytes
Step Temp E_pair E_mol TotEng Press 
     656            0            0  0.030536008  0.030536008 -0.0077734902 
    1000  0.020307692    37.973627    22.141778    60.135406     12.69365 
    2000  0.020307692    85.724246    21.364022    107.10827    41.427787 
    3000  0.020307692    148.88443     20.88302    169.78745    72.720882 
    4000  0.020307692    213.00613    20.813895    233.84003    104.15911 
    5000  0.020307692    276.65389    20.916655    297.59054    135.33512 
    6000  0.020307692    339.85491    20.712348    360.58726    166.58335 
    7000  0.020307692    402.92614    20.620816    423.56696    198.04133 
    8000  0.020307692    466.79098    20.770446    487.58142    229.22245 
    9000  0.020307692     530.1895    20.558442    550.76795    260.60931 
   10000  0.020307692    593.57805    20.514271    614.11232    291.96855 
   11000  0.020307692    657.08846    20.532785    677.64125    322.97386 
   12000  0.020307692     720.7673    20.542682    741.32998    354.27631 
   13000  0.020307692    784.25632    20.495724    804.77205    385.65836 
   14000  0.020307692    847.73888     20.79615    868.55503    416.91123 
   15000  0.020307692    911.35377    20.683022    932.05679    448.18415 
   16000  0.020307692    975.19166    20.732941     995.9446    479.46873 
   17000  0.020307692    1038.7268    20.666968    1059.4137     510.8365 
   18000  0.020307692    1102.1839    20.650161    1122.8541     542.1003 
   19000  0.020307692    1165.7912    20.731083    1186.5423    573.40335 
   20000  0.020307692    1229.3419    20.707116     1250.069    604.58832 
   21000  0.020307692    1292.8406    20.704164    1313.5648    635.97538 
   22000  0.020307692    1356.3872    20.744774     1377.152    667.03317 
   23000  0.020307692    1419.9526    20.615957    1440.5885     698.3754 
   24000  0.020307692    1483.6582     20.48809    1504.1663    729.75641 
   25000  0.020307692    1547.2164    20.613856    1567.8502    760.96445 
   26000  0.020307692    1610.7955    20.839208    1631.6547     792.2696 
   27000  0.020307692    1674.2504    20.737532    1695.0079    823.41886 
   28000  0.020307692    1737.7294    20.816182    1758.5656    854.90445 
   29000  0.020307692    1801.4122    20.671455    1822.1037    886.14371 
   30000  0.020307692    1865.0006    20.746939    1885.7675     917.4209 
   31000  0.020307692    1928.5477    20.521359    1949.0891    948.71606 
   32000  0.020307692    1992.1632    20.529671    2012.7129    979.99476 
   33000  0.020307692    2055.7203    20.594026    2076.3343    1011.2363 
   34000  0.020307692    2119.3256     20.37657    2139.7221    1042.5562 
   35000  0.020307692    2182.9153    20.618494    2203.5537    1073.6921 
   36000  0.020307692      2246.48    20.724228    2267.2242     1105.036 
   37000  0.020307692     2310.071    20.604792    2330.6958    1136.3153 
   38000  0.020307692    2373.6273    20.625443    2394.2727    1167.5791 
   39000  0.020307692    2437.1567    20.572884    2457.7495     1198.854 
   40000  0.020307692    2500.7702    20.512027    2521.3022    1230.0952 
   41000  0.020307692    2564.3292     20.60378     2584.953    1261.4737 
   42000  0.020307692    2627.8616    20.599318    2648.4809    1292.6321 
   43000  0.020307692    2691.4556    20.611755    2712.0874    1324.0149 
   44000  0.020307692    2754.9734    20.665078    2775.6585    1355.2021 
   45000  0.020307692    2818.5343    20.603323    2839.1576    1386.6085 
   46000  0.020307692    2882.1409    20.689955    2902.8509    1417.8189 
   47000  0.020307692     2945.674    20.749824    2966.4438    1449.0611 
   48000  0.020307692    3009.2332    20.445937    3029.6992    1480.3288 
   49000  0.020307692    3072.7772    20.655685    3093.4529    1511.5344 
   50000  0.020307692    3136.3766    20.624551    3157.0212     1542.901 
   50656  0.020307692    3178.0776    20.521555    3198.6192    1563.4034 
Loop time of 0.495396 on 1 procs for 50000 steps with 66 atoms

Performance: 4360149135.569 tau/day, 100929.378 timesteps/s
99.2% CPU use with 1 MPI tasks x no OpenMP threads

MPI task timing breakdown:
Section |  min time  |  avg time  |  max time  |%varavg| %total
---------------------------------------------------------------
Pair    | 0.20839    | 0.20839    | 0.20839    |   0.0 | 42.06
Bond    | 0.095906   | 0.095906   | 0.095906   |   0.0 | 19.36
Neigh   | 0.0010099  | 0.0010099  | 0.0010099  |   0.0 |  0.20
Comm    | 0.011306   | 0.011306   | 0.011306   |   0.0 |  2.28
Output  | 0.00084829 | 0.00084829 | 0.00084829 |   0.0 |  0.17
Modify  | 0.16047    | 0.16047    | 0.16047    |   0.0 | 32.39
Other   |            | 0.01746    |            |       |  3.53

Nlocal:    66 ave 66 max 66 min
Histogram: 1 0 0 0 0 0 0 0 0 0
Nghost:    38 ave 38 max 38 min
Histogram: 1 0 0 0 0 0 0 0 0 0
Neighs:    160 ave 160 max 160 min
Histogram: 1 0 0 0 0 0 0 0 0 0

Total # of neighbors = 160
Ave neighs/atom = 2.42424
Ave special neighs/atom = 2.54545
Neighbor list builds = 49
Dangerous builds = 0
Per MPI rank memory allocation (min/avg/max) = 5.802 | 5.802 | 5.802 Mbytes
Step Temp E_pair E_mol TotEng Press 
       0  0.020307692            0    20.521555    20.541555  -0.38985847 
    1000  0.020307692   0.16507843    20.656595    20.841674  -0.12325137 
    2000  0.020307692  0.067966676    20.565313    20.653279  -0.14730298 
    3000  0.020307692    0.3140405    20.436536    20.770577   0.38444159 
    4000  0.020307692   0.43877889    20.538299    20.997078   0.72917291 
    5000  0.020307692   0.27537304    20.844397     21.13977   0.63533911 
    6000  0.020307692            0    20.539428    20.559428  -0.40428237 
    7000  0.020307692 0.00010107493    20.662088    20.682189  -0.39582279 
    8000  0.020307692   0.53276287    20.768121    21.320883   0.65450381 
    9000  0.020307692   0.13857074    20.700348    20.858918   0.18224321 
   10000  0.020307692   0.34465836    20.619966    20.984624   0.57370545 
   11000  0.020307692     1.376961    20.588453    21.985414    3.2601638 
   12000  0.020307692   0.18291549    20.555324    20.758239    0.4918746 
   13000  0.020307692    1.8528073    20.674373     22.54718     2.118585 
   14000  0.020307692            0    20.572378    20.592378  -0.41496516 
   15000  0.020307692    6.5011478     20.51943    27.040578    8.0473887 
   16000  0.020307692            0     20.75513     20.77513   -0.4173902 
   17000  0.020307692    1.0984198    20.583077    21.701497    2.0374771 
   18000  0.020307692    2.8848018    20.632718     23.53752    4.8319232 
   19000  0.020307692     2.350027    20.716196    23.086223     5.078718 
   20000  0.020307692   0.41732367    20.765322    21.202646    1.6611888 
   21000  0.020307692  0.034894273    20.644856     20.69975  0.045505728 
   22000  0.020307692    3.9689666    20.877786    24.866752    4.8528946 
   23000  0.020307692    8.9759568    20.700758    29.696715    12.336053 
   24000  0.020307692            0    20.521973    20.541973  -0.41007481 
   25000  0.020307692    1.7730237    20.572897    22.365921    3.4512603 
   26000  0.020307692   0.30917268    20.556554    20.885727    1.0670164 
   27000  0.020307692    7.9846565    20.548464     28.55312    11.646415 
   28000  0.020307692    7.6240514     20.61596    28.260012    10.973169 
   29000  0.020307692    2.6012454    20.686427    23.307673    4.0827803 
   30000  0.020307692    15.031643    20.613075    35.664719    18.141329 
   31000  0.020307692    2.8127176    20.593172     23.42589    6.2325436 
   32000  0.020307692    1.8729856    20.490975    22.383961    4.7894411 
   33000  0.020307692  0.033374314    20.566455    20.619829   0.17734765 
   34000  0.020307692    4.2818028     20.54361    24.845413    5.8340064 
   35000  0.020307692    1.7243941    20.515473    22.259867    7.0048564 
   36000  0.020307692 0.0035732472    20.568987    20.592561  -0.19772368 
   37000  0.020307692            0    20.454491    20.474491  -0.37504288 
   38000  0.020307692    1.4655243    20.372578    21.858102    3.4848552 
   39000  0.020307692    8.4928679     20.69388    29.206748    15.768863 
   40000  0.020307692   0.13081065    20.664521    20.815331   0.78850281 
   41000  0.020307692   0.73180904    20.786388    21.538198    2.5753862 
   42000  0.020307692    7.7897368    20.645888    28.455625    12.479724 
   43000  0.020307692    4.7989808    20.690718    25.509699     7.034742 
   44000  0.020307692    10.576476    20.626468    31.222944    10.690731 
   45000  0.020307692    9.6604003    20.687855    30.368256    13.915575 
   46000  0.020307692            0    20.516694    20.536694  -0.39518827 
   47000  0.020307692    0.2092939    20.484533    20.713827    1.2343518 
   48000  0.020307692   0.50296187      20.6291    21.152062    2.1707213 
   49000  0.020307692    5.6708272    20.579819    26.270646    9.5066978 
   50000  0.020307692   0.75527548    20.550789    21.326064    2.7860714 
Loop time of 0.404938 on 1 procs for 50000 steps with 66 atoms

Performance: 5334150148.990 tau/day, 123475.698 timesteps/s
96.8% CPU use with 1 MPI tasks x no OpenMP threads

MPI task timing breakdown:
Section |  min time  |  avg time  |  max time  |%varavg| %total
---------------------------------------------------------------
Pair    | 0.039196   | 0.039196   | 0.039196   |   0.0 |  9.68
Bond    | 0.10259    | 0.10259    | 0.10259    |   0.0 | 25.34
Neigh   | 0.04795    | 0.04795    | 0.04795    |   0.0 | 11.84
Comm    | 0.015444   | 0.015444   | 0.015444   |   0.0 |  3.81
Output  | 0.00070548 | 0.00070548 | 0.00070548 |   0.0 |  0.17
Modify  | 0.17862    | 0.17862    | 0.17862    |   0.0 | 44.11
Other   |            | 0.02043    |            |       |  5.04

Nlocal:    66 ave 66 max 66 min
Histogram: 1 0 0 0 0 0 0 0 0 0
Nghost:    32 ave 32 max 32 min
Histogram: 1 0 0 0 0 0 0 0 0 0
Neighs:    114 ave 114 max 114 min
Histogram: 1 0 0 0 0 0 0 0 0 0

Total # of neighbors = 114
Ave neighs/atom = 1.72727
Ave special neighs/atom = 2.54545
Neighbor list builds = 3141
Dangerous builds = 0
Per MPI rank memory allocation (min/avg/max) = 6.927 | 6.927 | 6.927 Mbytes
Step Temp E_pair E_mol TotEng Press 
       0  0.020307692            0    20.550789    20.570789  -0.40455196 
     256  0.020307692            0  0.011856079  0.031856079 0.0020245925 
Loop time of 0.00354004 on 1 procs for 256 steps with 66 atoms

95.2% CPU use with 1 MPI tasks x no OpenMP threads

Minimization stats:
  Stopping criterion = energy tolerance
  Energy initial, next-to-last, final = 
         20.5507887735    0.0118568270849    0.0118560790685
  Force two-norm initial, final = 10113 2.51435
  Force max component initial, final = 2027.61 0.824746
  Final line search alpha, max atom move = 0.0237879 0.019619
  Iterations, force evaluations = 256 692

MPI task timing breakdown:
Section |  min time  |  avg time  |  max time  |%varavg| %total
---------------------------------------------------------------
Pair    | 0.0005393  | 0.0005393  | 0.0005393  |   0.0 | 15.23
Bond    | 0.0018606  | 0.0018606  | 0.0018606  |   0.0 | 52.56
Neigh   | 0.00013804 | 0.00013804 | 0.00013804 |   0.0 |  3.90
Comm    | 0.00020623 | 0.00020623 | 0.00020623 |   0.0 |  5.83
Output  | 0          | 0          | 0          |   0.0 |  0.00
Modify  | 0          | 0          | 0          |   0.0 |  0.00
Other   |            | 0.0007958  |            |       | 22.48

Nlocal:    66 ave 66 max 66 min
Histogram: 1 0 0 0 0 0 0 0 0 0
Nghost:    32 ave 32 max 32 min
Histogram: 1 0 0 0 0 0 0 0 0 0
Neighs:    124 ave 124 max 124 min
Histogram: 1 0 0 0 0 0 0 0 0 0

Total # of neighbors = 124
Ave neighs/atom = 1.87879
Ave special neighs/atom = 2.54545
Neighbor list builds = 2
Dangerous builds = 0
Per MPI rank memory allocation (min/avg/max) = 5.802 | 5.802 | 5.802 Mbytes
Step Temp E_pair E_mol TotEng Press 
     256  0.020307692            0  0.011856079  0.031856079 0.0020245925 
    5000  0.020307692    16.853995    36.188776    53.062771  -0.10740397 
   10000  0.020307692    18.666273    40.679463    59.365736    0.7624964 
   15000  0.020307692    20.128481    40.179085    60.327566    1.8096011 
   20000  0.020307692     22.05127    38.291771     60.36304    2.8594769 
   25000  0.020307692    24.165961    35.372008    59.557969    3.8269677 
   30000  0.020307692    26.811182    32.724565    59.555747    4.7650319 
   35000  0.020307692    30.082244    30.577539    60.679783    5.7234827 
   40000  0.020307692    33.665081    29.162182    62.847263     6.605219 
   45000  0.020307692    37.541487    28.263183     65.82467    7.5527922 
   50000  0.020307692    41.505902    27.425146    68.951047    8.5527921 
   50256  0.020307692    41.745758    27.439244    69.205003    8.5924044 
Loop time of 0.414563 on 1 procs for 50000 steps with 66 atoms

Performance: 5210303541.975 tau/day, 120608.878 timesteps/s
97.2% CPU use with 1 MPI tasks x no OpenMP threads

MPI task timing breakdown:
Section |  min time  |  avg time  |  max time  |%varavg| %total
---------------------------------------------------------------
Pair    | 0.09718    | 0.09718    | 0.09718    |   0.0 | 23.44
Bond    | 0.10446    | 0.10446    | 0.10446    |   0.0 | 25.20
Neigh   | 0.00047517 | 0.00047517 | 0.00047517 |   0.0 |  0.11
Comm    | 0.011422   | 0.011422   | 0.011422   |   0.0 |  2.76
Output  | 0.0093548  | 0.0093548  | 0.0093548  |   0.0 |  2.26
Modify  | 0.17288    | 0.17288    | 0.17288    |   0.0 | 41.70
Other   |            | 0.01879    |            |       |  4.53

Nlocal:    66 ave 66 max 66 min
Histogram: 1 0 0 0 0 0 0 0 0 0
Nghost:    32 ave 32 max 32 min
Histogram: 1 0 0 0 0 0 0 0 0 0
Neighs:    159 ave 159 max 159 min
Histogram: 1 0 0 0 0 0 0 0 0 0

Total # of neighbors = 159
Ave neighs/atom = 2.40909
Ave special neighs/atom = 2.54545
Neighbor list builds = 17
Dangerous builds = 0
Total wall time: 0:00:01
