ITEM: TIMESTEP
1000
ITEM: NUMBER OF ATOMS
66
ITEM: BOX BOUNDS pp pp pp
-3.5000000000000000e+01 3.5000000000000000e+01
-3.5000000000000000e+01 3.5000000000000000e+01
-5.0000000000000000e-01 5.0000000000000000e-01
ITEM: ATOMS id type x y z vx vy vz 
1 1 -3.90424 -4.00581 0 -0.122024 -0.158462 0 
2 1 -3.27605 -3.29375 0 0.127924 0.153738 0 
3 1 -2.61913 -2.49734 0 0.148161 0.134344 0 
4 1 -1.79397 -1.72641 0 -0.16917 -0.106684 0 
5 1 -0.955423 -1.3448 0 0.185793 0.0740346 0 
6 1 0.187037 -1.0547 0 -0.193994 -0.0486451 0 
7 1 1.15769 -0.891736 0 0.199591 0.0127803 0 
8 1 2.27234 -0.8327 0 -0.199588 -0.012836 0 
9 1 3.22 -0.873231 0 0.199413 -0.0153076 0 
10 1 4.29385 -0.890935 0 0.199071 0.0192547 0 
11 1 5.46228 -0.79688 0 -0.19809 -0.0275767 0 
12 1 6.46816 -0.671544 0 0.197818 0.029464 0 
13 1 7.61783 -0.408773 0 -0.191058 -0.0591326 0 
14 1 8.58656 -0.117028 0 0.18913 0.0650364 0 
15 1 9.66631 0.333619 0 -0.178467 -0.0902741 0 
16 1 10.5516 0.791993 0 0.18145 0.0841174 0 
17 1 11.5635 1.33271 0 -0.183521 -0.0794985 0 
18 1 12.4166 1.63342 0 0.192612 0.0538577 0 
19 1 13.5606 1.85694 0 -0.196212 -0.0387429 0 
20 1 14.5164 1.98773 0 0.197372 0.0323174 0 
21 1 15.6131 2.14805 0 -0.197289 -0.0328211 0 
22 1 16.5471 2.31163 0 0.195405 0.0426227 0 
23 1 17.6599 2.54211 0 -0.196 -0.0397975 0 
24 1 18.638 2.72008 0 0.1974 0.0321423 0 
25 1 19.8104 2.8448 0 -0.19788 -0.0290412 0 
26 1 20.9078 2.9013 0 -0.199915 0.00584296 0 
27 1 21.8975 2.88861 0 0.199996 -0.00123354 0 
28 1 23.0557 2.77761 0 -0.19774 0.0299812 0 
29 1 23.9934 2.65285 0 0.199108 -0.0188638 0 
30 1 25.1237 2.47219 0 -0.196217 0.0387132 0 
31 2 26.5809 -14.8153 0 0.186762 -0.0715533 0 
32 2 29.0687 17.985 0 -0.00644478 0.199896 0 
33 2 -18.7096 -4.62351 0 0.133978 0.148492 0 
34 2 8.25352 -28.6829 0 0.142047 0.140793 0 
35 2 17.2773 34.0133 0 0.0760294 0.184985 0 
36 2 5.69448 28.2855 0 0.0826426 0.182127 0 
37 2 -5.73625 10.3388 0 -0.122475 -0.158113 0 
38 2 31.8563 -4.72279 0 -0.0620858 0.190119 0 
39 2 29.5421 6.80606 0 0.0075814 -0.199856 0 
40 2 5.3229 15.8698 0 0.129626 -0.152306 0 
41 2 20.9424 -1.75691 0 -0.191816 -0.0566266 0 
42 2 -19.7827 -28.7881 0 -0.09141 -0.177888 0 
43 2 -28.0853 1.84646 0 0.122451 0.158132 0 
44 2 -6.95755 -0.980687 0 -0.197962 -0.0284765 0 
45 2 2.29198 -7.65917 0 0.18922 0.0647755 0 
46 2 -28.6083 -11.3273 0 -0.199943 0.00477933 0 
47 2 1.65907 -19.0056 0 0.146045 0.136642 0 
48 2 -30.9446 -34.4751 0 0.148291 0.1342 0 
49 2 -31.2571 -22.2603 0 -0.195983 0.039885 0 
50 2 6.4246 3.12084 0 -0.0554983 -0.192146 0 
51 2 -15.0101 18.7166 0 0.123089 -0.157636 0 
52 2 -24.9422 26.0024 0 -0.116514 -0.162556 0 
53 2 -2.26729 -33.4403 0 0.0812937 0.182733 0 
54 2 28.1146 -28.2824 0 -0.190558 -0.060726 0 
55 2 -17.5087 6.99794 0 -0.197542 -0.0312604 0 
56 2 -18.7616 -16.9951 0 -0.15652 0.124505 0 
57 2 -4.32306 22.4913 0 -0.00561379 0.199921 0 
58 2 -27.5178 13.3217 0 -0.198438 0.0249504 0 
59 2 17.6876 22.1599 0 0.164852 0.113242 0 
60 2 16.2585 8.95286 0 -0.0844725 -0.181285 0 
61 2 17.9922 -22.6266 0 0.0959235 0.175496 0 
62 2 12.6216 -12.2271 0 -0.0621768 -0.19009 0 
63 2 -8.28836 -12.6302 0 -0.0572187 -0.19164 0 
64 2 28.005 30.274 0 0.0928835 0.177123 0 
65 2 -12.4844 30.6547 0 -0.199612 0.0124504 0 
66 2 -8.85709 -24.2371 0 -0.146427 0.136231 0 
ITEM: TIMESTEP
2000
ITEM: NUMBER OF ATOMS
66
ITEM: BOX BOUNDS pp pp pp
-3.5000000000000000e+01 3.5000000000000000e+01
-3.5000000000000000e+01 3.5000000000000000e+01
-5.0000000000000000e-01 5.0000000000000000e-01
ITEM: ATOMS id type x y z vx vy vz 
1 1 -2.86502 -4.51531 0 -0.0136637 -0.199533 0 
2 1 -2.76258 -3.58318 0 0.0106631 0.199716 0 
3 1 -2.48542 -2.60549 0 0.128869 0.152947 0 
4 1 -1.79726 -1.72034 0 -0.152675 -0.129191 0 
5 1 -0.965357 -1.27847 0 0.187058 0.0707777 0 
6 1 0.185225 -1.05243 0 -0.199015 -0.0198245 0 
7 1 1.14219 -1.07257 0 0.199687 -0.0111799 0 
8 1 2.24687 -1.25824 0 -0.198408 0.0251822 0 
9 1 3.22169 -1.4229 0 0.197074 -0.0340863 0 
10 1 4.32286 -1.54942 0 0.19994 -0.00491546 0 
11 1 5.54155 -1.55371 0 -0.199242 -0.0173973 0 
12 1 6.59981 -1.42284 0 0.197072 0.0340978 0 
13 1 7.82847 -1.13798 0 -0.19087 -0.0597376 0 
14 1 8.84115 -0.793595 0 0.183191 0.0802569 0 
15 1 9.96933 -0.265163 0 -0.173318 -0.0998046 0 
16 1 10.8521 0.264567 0 0.166346 0.111036 0 
17 1 11.7737 0.973569 0 -0.153222 -0.128542 0 
18 1 12.48 1.54119 0 0.170472 0.104592 0 
19 1 13.5301 1.99165 0 -0.191425 -0.0579338 0 
20 1 14.4616 2.21899 0 0.195123 0.0438966 0 
21 1 15.5592 2.43749 0 -0.194267 -0.0475438 0 
22 1 16.4576 2.67088 0 0.191984 0.056055 0 
23 1 17.5707 2.98121 0 -0.193922 -0.0489321 0 
24 1 18.5492 3.20511 0 0.196695 0.0362082 0 
25 1 19.7625 3.40063 0 -0.199057 -0.0193941 0 
26 1 20.8908 3.48327 0 -0.199999 -0.000727489 0 
27 1 21.9203 3.48049 0 0.199636 -0.0120688 0 
28 1 23.123 3.35051 0 -0.196954 0.0347706 0 
29 1 24.08 3.1338 0 0.194113 -0.0481688 0 
30 1 25.1877 2.80151 0 -0.192686 0.0535914 0 
31 2 26.5809 -14.8153 0 0.186762 -0.0715533 0 
32 2 29.0687 17.985 0 -0.00644478 0.199896 0 
33 2 -18.7096 -4.62351 0 0.133978 0.148492 0 
34 2 8.25352 -28.6829 0 0.142047 0.140793 0 
35 2 17.2773 34.0133 0 0.0760294 0.184985 0 
36 2 5.69448 28.2855 0 0.0826426 0.182127 0 
37 2 -5.73625 10.3388 0 -0.122475 -0.158113 0 
38 2 31.8563 -4.72279 0 -0.0620858 0.190119 0 
39 2 29.5421 6.80606 0 0.0075814 -0.199856 0 
40 2 5.3229 15.8698 0 0.129626 -0.152306 0 
41 2 20.9424 -1.75691 0 -0.191816 -0.0566266 0 
42 2 -19.7827 -28.7881 0 -0.09141 -0.177888 0 
43 2 -28.0853 1.84646 0 0.122451 0.158132 0 
44 2 -6.95755 -0.980687 0 -0.197962 -0.0284765 0 
45 2 2.29198 -7.65917 0 0.18922 0.0647755 0 
46 2 -28.6083 -11.3273 0 -0.199943 0.00477933 0 
47 2 1.65907 -19.0056 0 0.146045 0.136642 0 
48 2 -30.9446 -34.4751 0 0.148291 0.1342 0 
49 2 -31.2571 -22.2603 0 -0.195983 0.039885 0 
50 2 6.4246 3.12084 0 -0.0554983 -0.192146 0 
51 2 -15.0101 18.7166 0 0.123089 -0.157636 0 
52 2 -24.9422 26.0024 0 -0.116514 -0.162556 0 
53 2 -2.26729 -33.4403 0 0.0812937 0.182733 0 
54 2 28.1146 -28.2824 0 -0.190558 -0.060726 0 
55 2 -17.5087 6.99794 0 -0.197542 -0.0312604 0 
56 2 -18.7616 -16.9951 0 -0.15652 0.124505 0 
57 2 -4.32306 22.4913 0 -0.00561379 0.199921 0 
58 2 -27.5178 13.3217 0 -0.198438 0.0249504 0 
59 2 17.6876 22.1599 0 0.164852 0.113242 0 
60 2 16.2585 8.95286 0 -0.0844725 -0.181285 0 
61 2 17.9922 -22.6266 0 0.0959235 0.175496 0 
62 2 12.6216 -12.2271 0 -0.0621768 -0.19009 0 
63 2 -8.28836 -12.6302 0 -0.0572187 -0.19164 0 
64 2 28.005 30.274 0 0.0928835 0.177123 0 
65 2 -12.4844 30.6547 0 -0.199612 0.0124504 0 
66 2 -8.85709 -24.2371 0 -0.146427 0.136231 0 
ITEM: TIMESTEP
3000
ITEM: NUMBER OF ATOMS
66
ITEM: BOX BOUNDS pp pp pp
-3.5000000000000000e+01 3.5000000000000000e+01
-3.5000000000000000e+01 3.5000000000000000e+01
-5.0000000000000000e-01 5.0000000000000000e-01
ITEM: ATOMS id type x y z vx vy vz 
1 1 -2.69501 -4.6052 0 -0.0478626 -0.194188 0 
2 1 -2.47418 -3.70221 0 0.0513175 0.193304 0 
3 1 -2.29727 -2.72638 0 0.101975 0.17205 0 
4 1 -1.73669 -1.77345 0 -0.136958 -0.145748 0 
5 1 -0.968248 -1.23908 0 0.184193 0.0779281 0 
6 1 0.176031 -0.972497 0 -0.198238 -0.0264882 0 
7 1 1.14134 -1.02987 0 0.197097 -0.0339551 0 
8 1 2.25424 -1.31287 0 -0.192255 0.0551172 0 
9 1 3.23117 -1.56222 0 0.190701 -0.0602757 0 
10 1 4.33246 -1.78296 0 0.199519 -0.0138673 0 
11 1 5.5686 -1.82293 0 -0.199974 -0.00324972 0 
12 1 6.64656 -1.70624 0 0.19764 0.0306356 0 
13 1 7.91243 -1.42821 0 -0.191712 -0.0569795 0 
14 1 8.94725 -1.06536 0 0.183023 0.0806377 0 
15 1 10.0987 -0.512694 0 -0.176993 -0.0931315 0 
16 1 10.9747 0.0556481 0 0.165221 0.112703 0 
17 1 11.8952 0.798484 0 -0.154795 -0.126644 0 
18 1 12.5505 1.45016 0 0.159169 0.1211 0 
19 1 13.5116 2.05309 0 -0.179033 -0.0891471 0 
20 1 14.3938 2.42965 0 0.186937 0.0710963 0 
21 1 15.4917 2.73382 0 -0.193646 -0.0500135 0 
22 1 16.4113 2.89718 0 0.196026 0.0396715 0 
23 1 17.5471 3.14347 0 -0.196597 -0.0367395 0 
24 1 18.5247 3.37068 0 0.194984 0.0445104 0 
25 1 19.7477 3.57703 0 -0.19773 -0.030048 0 
26 1 20.8854 3.63587 0 -0.199468 0.0145839 0 
27 1 21.9244 3.61934 0 0.199445 -0.0148839 0 
28 1 23.1328 3.44663 0 -0.195662 0.0414287 0 
29 1 24.0862 3.18218 0 0.18764 -0.0692185 0 
30 1 25.1594 2.74228 0 -0.182758 0.0812379 0 
31 2 26.5809 -14.8153 0 0.186762 -0.0715533 0 
32 2 29.0687 17.985 0 -0.00644478 0.199896 0 
33 2 -18.7096 -4.62351 0 0.133978 0.148492 0 
34 2 8.25352 -28.6829 0 0.142047 0.140793 0 
35 2 17.2773 34.0133 0 0.0760294 0.184985 0 
36 2 5.69448 28.2855 0 0.0826426 0.182127 0 
37 2 -5.73625 10.3388 0 -0.122475 -0.158113 0 
38 2 31.8563 -4.72279 0 -0.0620858 0.190119 0 
39 2 29.5421 6.80606 0 0.0075814 -0.199856 0 
40 2 5.3229 15.8698 0 0.129626 -0.152306 0 
41 2 20.9424 -1.75691 0 -0.191816 -0.0566266 0 
42 2 -19.7827 -28.7881 0 -0.09141 -0.177888 0 
43 2 -28.0853 1.84646 0 0.122451 0.158132 0 
44 2 -6.95755 -0.980687 0 -0.197962 -0.0284765 0 
45 2 2.29198 -7.65917 0 0.18922 0.0647755 0 
46 2 -28.6083 -11.3273 0 -0.199943 0.00477933 0 
47 2 1.65907 -19.0056 0 0.146045 0.136642 0 
48 2 -30.9446 -34.4751 0 0.148291 0.1342 0 
49 2 -31.2571 -22.2603 0 -0.195983 0.039885 0 
50 2 6.4246 3.12084 0 -0.0554983 -0.192146 0 
51 2 -15.0101 18.7166 0 0.123089 -0.157636 0 
52 2 -24.9422 26.0024 0 -0.116514 -0.162556 0 
53 2 -2.26729 -33.4403 0 0.0812937 0.182733 0 
54 2 28.1146 -28.2824 0 -0.190558 -0.060726 0 
55 2 -17.5087 6.99794 0 -0.197542 -0.0312604 0 
56 2 -18.7616 -16.9951 0 -0.15652 0.124505 0 
57 2 -4.32306 22.4913 0 -0.00561379 0.199921 0 
58 2 -27.5178 13.3217 0 -0.198438 0.0249504 0 
59 2 17.6876 22.1599 0 0.164852 0.113242 0 
60 2 16.2585 8.95286 0 -0.0844725 -0.181285 0 
61 2 17.9922 -22.6266 0 0.0959235 0.175496 0 
62 2 12.6216 -12.2271 0 -0.0621768 -0.19009 0 
63 2 -8.28836 -12.6302 0 -0.0572187 -0.19164 0 
64 2 28.005 30.274 0 0.0928835 0.177123 0 
65 2 -12.4844 30.6547 0 -0.199612 0.0124504 0 
66 2 -8.85709 -24.2371 0 -0.146427 0.136231 0 
ITEM: TIMESTEP
4000
ITEM: NUMBER OF ATOMS
66
ITEM: BOX BOUNDS pp pp pp
-3.5000000000000000e+01 3.5000000000000000e+01
-3.5000000000000000e+01 3.5000000000000000e+01
-5.0000000000000000e-01 5.0000000000000000e-01
ITEM: ATOMS id type x y z vx vy vz 
1 1 -2.51143 -4.74583 0 -0.0736544 -0.185944 0 
2 1 -2.15413 -3.88418 0 0.0870452 0.180064 0 
3 1 -1.94952 -2.89689 0 0.0457339 0.194701 0 
4 1 -1.62974 -1.83799 0 -0.0972352 -0.174772 0 
5 1 -0.960447 -1.20889 0 0.172546 0.101133 0 
6 1 0.166091 -0.882097 0 -0.198402 -0.025231 0 
7 1 1.15442 -0.939196 0 0.196677 -0.0363048 0 
8 1 2.28192 -1.2724 0 -0.191062 0.0591206 0 
9 1 3.25104 -1.59769 0 0.182392 -0.0820564 0 
10 1 4.34546 -1.87442 0 0.199946 -0.0046599 0 
11 1 5.5865 -1.98283 0 -0.199968 0.00358417 0 
12 1 6.67952 -1.90378 0 0.197668 0.0304549 0 
13 1 7.96669 -1.61842 0 -0.189659 -0.0634773 0 
14 1 9.01698 -1.24158 0 0.184546 0.0770889 0 
15 1 10.1713 -0.656865 0 -0.175258 -0.0963576 0 
16 1 11.0405 -0.0624093 0 0.156709 0.124267 0 
17 1 11.9424 0.719144 0 -0.148604 -0.133853 0 
18 1 12.6006 1.38741 0 0.156644 0.124349 0 
19 1 13.5177 2.0555 0 -0.169781 -0.105708 0 
20 1 14.3833 2.45394 0 0.189489 0.0639848 0 
21 1 15.4875 2.75209 0 -0.193886 -0.0490736 0 
22 1 16.4132 2.92102 0 0.194872 0.0450003 0 
23 1 17.552 3.17995 0 -0.1938 -0.0494125 0 
24 1 18.5219 3.43715 0 0.195269 0.0432438 0 
25 1 19.7413 3.67727 0 -0.194678 -0.0458313 0 
26 1 20.8844 3.76782 0 -0.199992 -0.00177903 0 
27 1 21.9313 3.73157 0 0.19791 -0.0288358 0 
28 1 23.141 3.51925 0 -0.19263 0.0537936 0 
29 1 24.087 3.21212 0 0.190597 -0.0606027 0 
30 1 25.1461 2.74691 0 -0.189189 0.064864 0 
31 2 26.5809 -14.8153 0 0.186762 -0.0715533 0 
32 2 29.0687 17.985 0 -0.00644478 0.199896 0 
33 2 -18.7096 -4.62351 0 0.133978 0.148492 0 
34 2 8.25352 -28.6829 0 0.142047 0.140793 0 
35 2 17.2773 34.0133 0 0.0760294 0.184985 0 
36 2 5.69448 28.2855 0 0.0826426 0.182127 0 
37 2 -5.73625 10.3388 0 -0.122475 -0.158113 0 
38 2 31.8563 -4.72279 0 -0.0620858 0.190119 0 
39 2 29.5421 6.80606 0 0.0075814 -0.199856 0 
40 2 5.3229 15.8698 0 0.129626 -0.152306 0 
41 2 20.9424 -1.75691 0 -0.191816 -0.0566266 0 
42 2 -19.7827 -28.7881 0 -0.09141 -0.177888 0 
43 2 -28.0853 1.84646 0 0.122451 0.158132 0 
44 2 -6.95755 -0.980687 0 -0.197962 -0.0284765 0 
45 2 2.29198 -7.65917 0 0.18922 0.0647755 0 
46 2 -28.6083 -11.3273 0 -0.199943 0.00477933 0 
47 2 1.65907 -19.0056 0 0.146045 0.136642 0 
48 2 -30.9446 -34.4751 0 0.148291 0.1342 0 
49 2 -31.2571 -22.2603 0 -0.195983 0.039885 0 
50 2 6.4246 3.12084 0 -0.0554983 -0.192146 0 
51 2 -15.0101 18.7166 0 0.123089 -0.157636 0 
52 2 -24.9422 26.0024 0 -0.116514 -0.162556 0 
53 2 -2.26729 -33.4403 0 0.0812937 0.182733 0 
54 2 28.1146 -28.2824 0 -0.190558 -0.060726 0 
55 2 -17.5087 6.99794 0 -0.197542 -0.0312604 0 
56 2 -18.7616 -16.9951 0 -0.15652 0.124505 0 
57 2 -4.32306 22.4913 0 -0.00561379 0.199921 0 
58 2 -27.5178 13.3217 0 -0.198438 0.0249504 0 
59 2 17.6876 22.1599 0 0.164852 0.113242 0 
60 2 16.2585 8.95286 0 -0.0844725 -0.181285 0 
61 2 17.9922 -22.6266 0 0.0959235 0.175496 0 
62 2 12.6216 -12.2271 0 -0.0621768 -0.19009 0 
63 2 -8.28836 -12.6302 0 -0.0572187 -0.19164 0 
64 2 28.005 30.274 0 0.0928835 0.177123 0 
65 2 -12.4844 30.6547 0 -0.199612 0.0124504 0 
66 2 -8.85709 -24.2371 0 -0.146427 0.136231 0 
ITEM: TIMESTEP
5000
ITEM: NUMBER OF ATOMS
66
ITEM: BOX BOUNDS pp pp pp
-3.5000000000000000e+01 3.5000000000000000e+01
-3.5000000000000000e+01 3.5000000000000000e+01
-5.0000000000000000e-01 5.0000000000000000e-01
ITEM: ATOMS id type x y z vx vy vz 
1 1 -2.56517 -4.78091 0 -0.0768294 -0.184654 0 
2 1 -2.14536 -3.94459 0 0.0949135 0.176044 0 
3 1 -1.84728 -2.96817 0 0.0415992 0.195626 0 
4 1 -1.52714 -1.89539 0 -0.0896239 -0.178795 0 
5 1 -0.940405 -1.19497 0 0.167604 0.109128 0 
6 1 0.168569 -0.838156 0 -0.198096 -0.0275305 0 
7 1 1.16169 -0.901669 0 0.196148 -0.0390643 0 
8 1 2.29803 -1.25961 0 -0.190552 0.0607443 0 
9 1 3.26089 -1.62854 0 0.18349 -0.079571 0 
10 1 4.35703 -1.94316 0 0.199984 -0.00256681 0 
11 1 5.60042 -2.07269 0 -0.199999 -0.000576437 0 
12 1 6.70169 -2.01364 0 0.197421 0.0320124 0 
13 1 8.00105 -1.74085 0 -0.192893 -0.0528434 0 
14 1 9.06587 -1.36757 0 0.18433 0.0776055 0 
15 1 10.2173 -0.75728 0 -0.172657 -0.100944 0 
16 1 11.0775 -0.139105 0 0.159457 0.120721 0 
17 1 11.9773 0.659617 0 -0.147371 -0.13521 0 
18 1 12.6605 1.31497 0 0.144661 0.138106 0 
19 1 13.5366 2.02948 0 -0.166383 -0.110981 0 
20 1 14.3866 2.44089 0 0.190341 0.061402 0 
21 1 15.4949 2.72387 0 -0.194679 -0.0458249 0 
22 1 16.4256 2.89261 0 0.194133 0.0480858 0 
23 1 17.5625 3.17637 0 -0.194176 -0.0479127 0 
24 1 18.5281 3.46637 0 0.194604 0.0461439 0 
25 1 19.7419 3.74541 0 -0.194159 -0.0479806 0 
26 1 20.8881 3.84832 0 -0.198603 0.0236005 0 
27 1 21.936 3.80741 0 0.198653 -0.0231701 0 
28 1 23.1452 3.57209 0 -0.193267 0.0514592 0 
29 1 24.0914 3.25316 0 0.184728 -0.0766512 0 
30 1 25.1317 2.74476 0 -0.181707 0.0835621 0 
31 2 26.5809 -14.8153 0 0.186762 -0.0715533 0 
32 2 29.0687 17.985 0 -0.00644478 0.199896 0 
33 2 -18.7096 -4.62351 0 0.133978 0.148492 0 
34 2 8.25352 -28.6829 0 0.142047 0.140793 0 
35 2 17.2773 34.0133 0 0.0760294 0.184985 0 
36 2 5.69448 28.2855 0 0.0826426 0.182127 0 
37 2 -5.73625 10.3388 0 -0.122475 -0.158113 0 
38 2 31.8563 -4.72279 0 -0.0620858 0.190119 0 
39 2 29.5421 6.80606 0 0.0075814 -0.199856 0 
40 2 5.3229 15.8698 0 0.129626 -0.152306 0 
41 2 20.9424 -1.75691 0 -0.191816 -0.0566266 0 
42 2 -19.7827 -28.7881 0 -0.09141 -0.177888 0 
43 2 -28.0853 1.84646 0 0.122451 0.158132 0 
44 2 -6.95755 -0.980687 0 -0.197962 -0.0284765 0 
45 2 2.29198 -7.65917 0 0.18922 0.0647755 0 
46 2 -28.6083 -11.3273 0 -0.199943 0.00477933 0 
47 2 1.65907 -19.0056 0 0.146045 0.136642 0 
48 2 -30.9446 -34.4751 0 0.148291 0.1342 0 
49 2 -31.2571 -22.2603 0 -0.195983 0.039885 0 
50 2 6.4246 3.12084 0 -0.0554983 -0.192146 0 
51 2 -15.0101 18.7166 0 0.123089 -0.157636 0 
52 2 -24.9422 26.0024 0 -0.116514 -0.162556 0 
53 2 -2.26729 -33.4403 0 0.0812937 0.182733 0 
54 2 28.1146 -28.2824 0 -0.190558 -0.060726 0 
55 2 -17.5087 6.99794 0 -0.197542 -0.0312604 0 
56 2 -18.7616 -16.9951 0 -0.15652 0.124505 0 
57 2 -4.32306 22.4913 0 -0.00561379 0.199921 0 
58 2 -27.5178 13.3217 0 -0.198438 0.0249504 0 
59 2 17.6876 22.1599 0 0.164852 0.113242 0 
60 2 16.2585 8.95286 0 -0.0844725 -0.181285 0 
61 2 17.9922 -22.6266 0 0.0959235 0.175496 0 
62 2 12.6216 -12.2271 0 -0.0621768 -0.19009 0 
63 2 -8.28836 -12.6302 0 -0.0572187 -0.19164 0 
64 2 28.005 30.274 0 0.0928835 0.177123 0 
65 2 -12.4844 30.6547 0 -0.199612 0.0124504 0 
66 2 -8.85709 -24.2371 0 -0.146427 0.136231 0 
ITEM: TIMESTEP
6000
ITEM: NUMBER OF ATOMS
66
ITEM: BOX BOUNDS pp pp pp
-3.5000000000000000e+01 3.5000000000000000e+01
-3.5000000000000000e+01 3.5000000000000000e+01
-5.0000000000000000e-01 5.0000000000000000e-01
ITEM: ATOMS id type x y z vx vy vz 
1 1 -2.6311 -4.79034 0 -0.0917031 -0.177737 0 
2 1 -2.14753 -3.98724 0 0.118366 0.161213 0 
3 1 -1.78804 -3.02706 0 0.0635588 0.189632 0 
4 1 -1.44847 -1.94257 0 -0.0903141 -0.178447 0 
5 1 -0.912257 -1.20142 0 0.165247 0.112665 0 
6 1 0.179269 -0.82792 0 -0.197728 -0.0300621 0 
7 1 1.17397 -0.858699 0 0.19713 -0.0337602 0 
8 1 2.3128 -1.25379 0 -0.187493 0.069615 0 
9 1 3.27158 -1.65393 0 0.179632 -0.087933 0 
10 1 4.36385 -2.00564 0 0.199975 -0.00316565 0 
11 1 5.6139 -2.15441 0 -0.199968 0.00357669 0 
12 1 6.71863 -2.09197 0 0.199351 0.0161003 0 
13 1 8.02619 -1.8306 0 -0.190655 -0.0604196 0 
14 1 9.09755 -1.45591 0 0.18225 0.0823717 0 
15 1 10.2534 -0.8401 0 -0.171635 -0.102671 0 
16 1 11.1133 -0.210265 0 0.156456 0.124586 0 
17 1 11.9943 0.615405 0 -0.142402 -0.140434 0 
18 1 12.6728 1.29148 0 0.146359 0.136305 0 
19 1 13.5483 2.01234 0 -0.169884 -0.105544 0 
20 1 14.3888 2.43579 0 0.189214 0.0647925 0 
21 1 15.4955 2.72619 0 -0.195437 -0.0424758 0 
22 1 16.4316 2.894 0 0.194693 0.0457682 0 
23 1 17.568 3.19235 0 -0.193904 -0.0490031 0 
24 1 18.5335 3.49124 0 0.193982 0.0486935 0 
25 1 19.7437 3.7892 0 -0.193767 -0.0495423 0 
26 1 20.8849 3.90446 0 -0.1983 0.0260221 0 
27 1 21.9389 3.86457 0 0.199133 -0.0185983 0 
28 1 23.1519 3.62399 0 -0.191798 0.0566879 0 
29 1 24.085 3.26875 0 0.185283 -0.0753013 0 
30 1 25.1091 2.71913 0 -0.172088 0.10191 0 
31 2 26.5809 -14.8153 0 0.186762 -0.0715533 0 
32 2 29.0687 17.985 0 -0.00644478 0.199896 0 
33 2 -18.7096 -4.62351 0 0.133978 0.148492 0 
34 2 8.25352 -28.6829 0 0.142047 0.140793 0 
35 2 17.2773 34.0133 0 0.0760294 0.184985 0 
36 2 5.69448 28.2855 0 0.0826426 0.182127 0 
37 2 -5.73625 10.3388 0 -0.122475 -0.158113 0 
38 2 31.8563 -4.72279 0 -0.0620858 0.190119 0 
39 2 29.5421 6.80606 0 0.0075814 -0.199856 0 
40 2 5.3229 15.8698 0 0.129626 -0.152306 0 
41 2 20.9424 -1.75691 0 -0.191816 -0.0566266 0 
42 2 -19.7827 -28.7881 0 -0.09141 -0.177888 0 
43 2 -28.0853 1.84646 0 0.122451 0.158132 0 
44 2 -6.95755 -0.980687 0 -0.197962 -0.0284765 0 
45 2 2.29198 -7.65917 0 0.18922 0.0647755 0 
46 2 -28.6083 -11.3273 0 -0.199943 0.00477933 0 
47 2 1.65907 -19.0056 0 0.146045 0.136642 0 
48 2 -30.9446 -34.4751 0 0.148291 0.1342 0 
49 2 -31.2571 -22.2603 0 -0.195983 0.039885 0 
50 2 6.4246 3.12084 0 -0.0554983 -0.192146 0 
51 2 -15.0101 18.7166 0 0.123089 -0.157636 0 
52 2 -24.9422 26.0024 0 -0.116514 -0.162556 0 
53 2 -2.26729 -33.4403 0 0.0812937 0.182733 0 
54 2 28.1146 -28.2824 0 -0.190558 -0.060726 0 
55 2 -17.5087 6.99794 0 -0.197542 -0.0312604 0 
56 2 -18.7616 -16.9951 0 -0.15652 0.124505 0 
57 2 -4.32306 22.4913 0 -0.00561379 0.199921 0 
58 2 -27.5178 13.3217 0 -0.198438 0.0249504 0 
59 2 17.6876 22.1599 0 0.164852 0.113242 0 
60 2 16.2585 8.95286 0 -0.0844725 -0.181285 0 
61 2 17.9922 -22.6266 0 0.0959235 0.175496 0 
62 2 12.6216 -12.2271 0 -0.0621768 -0.19009 0 
63 2 -8.28836 -12.6302 0 -0.0572187 -0.19164 0 
64 2 28.005 30.274 0 0.0928835 0.177123 0 
65 2 -12.4844 30.6547 0 -0.199612 0.0124504 0 
66 2 -8.85709 -24.2371 0 -0.146427 0.136231 0 
ITEM: TIMESTEP
7000
ITEM: NUMBER OF ATOMS
66
ITEM: BOX BOUNDS pp pp pp
-3.5000000000000000e+01 3.5000000000000000e+01
-3.5000000000000000e+01 3.5000000000000000e+01
-5.0000000000000000e-01 5.0000000000000000e-01
ITEM: ATOMS id type x y z vx vy vz 
1 1 -2.63731 -4.82025 0 -0.0966123 -0.175117 0 
2 1 -2.14403 -4.01828 0 0.0999307 0.173245 0 
3 1 -1.75212 -3.06582 0 0.0570087 0.191703 0 
4 1 -1.40857 -1.9738 0 -0.0926669 -0.177237 0 
5 1 -0.877034 -1.22602 0 0.159838 0.120215 0 
6 1 0.191588 -0.809305 0 -0.196832 -0.0354543 0 
7 1 1.18533 -0.846644 0 0.197621 -0.0307549 0 
8 1 2.32673 -1.24775 0 -0.186424 0.0724292 0 
9 1 3.28039 -1.6814 0 0.182464 -0.081896 0 
10 1 4.37994 -2.02655 0 0.198844 -0.0214689 0 
11 1 5.6272 -2.21382 0 -0.199464 0.0146265 0 
12 1 6.73803 -2.18464 0 0.199133 0.0186032 0 
13 1 8.05442 -1.92659 0 -0.193648 -0.0500037 0 
14 1 9.12216 -1.52731 0 0.184902 0.0762327 0 
15 1 10.2837 -0.907823 0 -0.166348 -0.111034 0 
16 1 11.1404 -0.267768 0 0.150056 0.132223 0 
17 1 12.0117 0.578481 0 -0.144419 -0.138359 0 
18 1 12.6844 1.27013 0 0.146661 0.13598 0 
19 1 13.5546 2.00425 0 -0.168016 -0.108493 0 
20 1 14.3957 2.41959 0 0.188383 0.0671715 0 
21 1 15.4989 2.72046 0 -0.195715 -0.0411784 0 
22 1 16.4377 2.89089 0 0.195429 0.0425142 0 
23 1 17.5739 3.20527 0 -0.190221 -0.061775 0 
24 1 18.5371 3.51852 0 0.191055 0.0591437 0 
25 1 19.745 3.82769 0 -0.191567 -0.0574628 0 
26 1 20.8899 3.94971 0 -0.199886 0.00676214 0 
27 1 21.9424 3.91705 0 0.197637 -0.0306522 0 
28 1 23.1559 3.67183 0 -0.191737 0.0568931 0 
29 1 24.09 3.30823 0 0.178987 -0.089239 0 
30 1 25.0994 2.7401 0 -0.173826 0.0989159 0 
31 2 26.5809 -14.8153 0 0.186762 -0.0715533 0 
32 2 29.0687 17.985 0 -0.00644478 0.199896 0 
33 2 -18.7096 -4.62351 0 0.133978 0.148492 0 
34 2 8.25352 -28.6829 0 0.142047 0.140793 0 
35 2 17.2773 34.0133 0 0.0760294 0.184985 0 
36 2 5.69448 28.2855 0 0.0826426 0.182127 0 
37 2 -5.73625 10.3388 0 -0.122475 -0.158113 0 
38 2 31.8563 -4.72279 0 -0.0620858 0.190119 0 
39 2 29.5421 6.80606 0 0.0075814 -0.199856 0 
40 2 5.3229 15.8698 0 0.129626 -0.152306 0 
41 2 20.9424 -1.75691 0 -0.191816 -0.0566266 0 
42 2 -19.7827 -28.7881 0 -0.09141 -0.177888 0 
43 2 -28.0853 1.84646 0 0.122451 0.158132 0 
44 2 -6.95755 -0.980687 0 -0.197962 -0.0284765 0 
45 2 2.29198 -7.65917 0 0.18922 0.0647755 0 
46 2 -28.6083 -11.3273 0 -0.199943 0.00477933 0 
47 2 1.65907 -19.0056 0 0.146045 0.136642 0 
48 2 -30.9446 -34.4751 0 0.148291 0.1342 0 
49 2 -31.2571 -22.2603 0 -0.195983 0.039885 0 
50 2 6.4246 3.12084 0 -0.0554983 -0.192146 0 
51 2 -15.0101 18.7166 0 0.123089 -0.157636 0 
52 2 -24.9422 26.0024 0 -0.116514 -0.162556 0 
53 2 -2.26729 -33.4403 0 0.0812937 0.182733 0 
54 2 28.1146 -28.2824 0 -0.190558 -0.060726 0 
55 2 -17.5087 6.99794 0 -0.197542 -0.0312604 0 
56 2 -18.7616 -16.9951 0 -0.15652 0.124505 0 
57 2 -4.32306 22.4913 0 -0.00561379 0.199921 0 
58 2 -27.5178 13.3217 0 -0.198438 0.0249504 0 
59 2 17.6876 22.1599 0 0.164852 0.113242 0 
60 2 16.2585 8.95286 0 -0.0844725 -0.181285 0 
61 2 17.9922 -22.6266 0 0.0959235 0.175496 0 
62 2 12.6216 -12.2271 0 -0.0621768 -0.19009 0 
63 2 -8.28836 -12.6302 0 -0.0572187 -0.19164 0 
64 2 28.005 30.274 0 0.0928835 0.177123 0 
65 2 -12.4844 30.6547 0 -0.199612 0.0124504 0 
66 2 -8.85709 -24.2371 0 -0.146427 0.136231 0 
ITEM: TIMESTEP
8000
ITEM: NUMBER OF ATOMS
66
ITEM: BOX BOUNDS pp pp pp
-3.5000000000000000e+01 3.5000000000000000e+01
-3.5000000000000000e+01 3.5000000000000000e+01
-5.0000000000000000e-01 5.0000000000000000e-01
ITEM: ATOMS id type x y z vx vy vz 
1 1 -2.66851 -4.83733 0 -0.116027 -0.162904 0 
2 1 -2.15755 -4.03954 0 0.120777 0.159414 0 
3 1 -1.74695 -3.08844 0 0.0742151 0.185721 0 
4 1 -1.36814 -2.00468 0 -0.0971191 -0.174837 0 
5 1 -0.856591 -1.2366 0 0.156267 0.124823 0 
6 1 0.209388 -0.821759 0 -0.197784 -0.0296925 0 
7 1 1.20098 -0.833192 0 0.197699 -0.0302493 0 
8 1 2.34389 -1.24256 0 -0.188867 0.0657973 0 
9 1 3.2957 -1.67934 0 0.181942 -0.0830492 0 
10 1 4.38482 -2.06413 0 0.197905 -0.0288728 0 
11 1 5.63779 -2.27486 0 -0.199787 0.0092238 0 
12 1 6.75385 -2.25227 0 0.198761 0.0222278 0 
13 1 8.07207 -1.99348 0 -0.190956 -0.0594622 0 
14 1 9.14952 -1.60114 0 0.183059 0.0805571 0 
15 1 10.3019 -0.959935 0 -0.167302 -0.10959 0 
16 1 11.1475 -0.300492 0 0.147651 0.134905 0 
17 1 12.0186 0.551492 0 -0.142307 -0.14053 0 
18 1 12.691 1.25132 0 0.145487 0.137235 0 
19 1 13.5628 1.9898 0 -0.16795 -0.108595 0 
20 1 14.4014 2.40971 0 0.188907 0.0656819 0 
21 1 15.5031 2.71265 0 -0.194631 -0.0460315 0 
22 1 16.4458 2.88332 0 0.19436 0.0471632 0 
23 1 17.5874 3.18568 0 -0.191247 -0.058521 0 
24 1 18.5457 3.5196 0 0.190971 0.0594145 0 
25 1 19.741 3.87194 0 -0.185049 -0.0758741 0 
26 1 20.8889 3.98488 0 -0.199493 0.0142295 0 
27 1 21.9415 3.93999 0 0.198996 -0.0200165 0 
28 1 23.151 3.69178 0 -0.192881 0.0528846 0 
29 1 24.087 3.33114 0 0.179983 -0.0872137 0 
30 1 25.0924 2.75513 0 -0.169469 0.106208 0 
31 2 26.5809 -14.8153 0 0.186762 -0.0715533 0 
32 2 29.0687 17.985 0 -0.00644478 0.199896 0 
33 2 -18.7096 -4.62351 0 0.133978 0.148492 0 
34 2 8.25352 -28.6829 0 0.142047 0.140793 0 
35 2 17.2773 34.0133 0 0.0760294 0.184985 0 
36 2 5.69448 28.2855 0 0.0826426 0.182127 0 
37 2 -5.73625 10.3388 0 -0.122475 -0.158113 0 
38 2 31.8563 -4.72279 0 -0.0620858 0.190119 0 
39 2 29.5421 6.80606 0 0.0075814 -0.199856 0 
40 2 5.3229 15.8698 0 0.129626 -0.152306 0 
41 2 20.9424 -1.75691 0 -0.191816 -0.0566266 0 
42 2 -19.7827 -28.7881 0 -0.09141 -0.177888 0 
43 2 -28.0853 1.84646 0 0.122451 0.158132 0 
44 2 -6.95755 -0.980687 0 -0.197962 -0.0284765 0 
45 2 2.29198 -7.65917 0 0.18922 0.0647755 0 
46 2 -28.6083 -11.3273 0 -0.199943 0.00477933 0 
47 2 1.65907 -19.0056 0 0.146045 0.136642 0 
48 2 -30.9446 -34.4751 0 0.148291 0.1342 0 
49 2 -31.2571 -22.2603 0 -0.195983 0.039885 0 
50 2 6.4246 3.12084 0 -0.0554983 -0.192146 0 
51 2 -15.0101 18.7166 0 0.123089 -0.157636 0 
52 2 -24.9422 26.0024 0 -0.116514 -0.162556 0 
53 2 -2.26729 -33.4403 0 0.0812937 0.182733 0 
54 2 28.1146 -28.2824 0 -0.190558 -0.060726 0 
55 2 -17.5087 6.99794 0 -0.197542 -0.0312604 0 
56 2 -18.7616 -16.9951 0 -0.15652 0.124505 0 
57 2 -4.32306 22.4913 0 -0.00561379 0.199921 0 
58 2 -27.5178 13.3217 0 -0.198438 0.0249504 0 
59 2 17.6876 22.1599 0 0.164852 0.113242 0 
60 2 16.2585 8.95286 0 -0.0844725 -0.181285 0 
61 2 17.9922 -22.6266 0 0.0959235 0.175496 0 
62 2 12.6216 -12.2271 0 -0.0621768 -0.19009 0 
63 2 -8.28836 -12.6302 0 -0.0572187 -0.19164 0 
64 2 28.005 30.274 0 0.0928835 0.177123 0 
65 2 -12.4844 30.6547 0 -0.199612 0.0124504 0 
66 2 -8.85709 -24.2371 0 -0.146427 0.136231 0 
ITEM: TIMESTEP
9000
ITEM: NUMBER OF ATOMS
66
ITEM: BOX BOUNDS pp pp pp
-3.5000000000000000e+01 3.5000000000000000e+01
-3.5000000000000000e+01 3.5000000000000000e+01
-5.0000000000000000e-01 5.0000000000000000e-01
ITEM: ATOMS id type x y z vx vy vz 
1 1 -2.693 -4.8543 0 -0.117244 -0.162031 0 
2 1 -2.16535 -4.06196 0 0.0982698 0.174193 0 
3 1 -1.73875 -3.11613 0 0.0738313 0.185873 0 
4 1 -1.34099 -2.03147 0 -0.0950313 -0.17598 0 
5 1 -0.828729 -1.26045 0 0.149429 0.132933 0 
6 1 0.223059 -0.820492 0 -0.194889 -0.0449268 0 
7 1 1.21635 -0.828541 0 0.195916 -0.0402112 0 
8 1 2.35897 -1.24896 0 -0.186492 0.0722537 0 
9 1 3.30952 -1.69845 0 0.177626 -0.0919188 0 
10 1 4.3958 -2.1041 0 0.198414 -0.0251383 0 
11 1 5.64719 -2.32833 0 -0.199857 0.00757471 0 
12 1 6.76914 -2.31702 0 0.199042 0.0195516 0 
13 1 8.0901 -2.05741 0 -0.191575 -0.0574369 0 
14 1 9.16669 -1.65516 0 0.180209 0.0867447 0 
15 1 10.3165 -1.00549 0 -0.167722 -0.108946 0 
16 1 11.164 -0.345147 0 0.15188 0.130125 0 
17 1 12.0238 0.525271 0 -0.141309 -0.141533 0 
18 1 12.7159 1.21207 0 0.145103 0.137642 0 
19 1 13.5811 1.9582 0 -0.163547 -0.115119 0 
20 1 14.4123 2.38979 0 0.18751 0.0695688 0 
21 1 15.5137 2.69013 0 -0.193005 -0.052433 0 
22 1 16.4534 2.8761 0 0.193802 0.049404 0 
23 1 17.5948 3.19052 0 -0.192424 -0.0545238 0 
24 1 18.5501 3.53735 0 0.189247 0.0646962 0 
25 1 19.7489 3.88263 0 -0.193048 -0.0522718 0 
26 1 20.8895 4.01277 0 -0.197771 0.0297769 0 
27 1 21.9438 3.98204 0 0.198659 -0.0231251 0 
28 1 23.1519 3.7206 0 -0.191165 0.0587883 0 
29 1 24.0825 3.35293 0 0.175454 -0.0959997 0 
30 1 25.0724 2.75304 0 -0.169464 0.106217 0 
31 2 26.5809 -14.8153 0 0.186762 -0.0715533 0 
32 2 29.0687 17.985 0 -0.00644478 0.199896 0 
33 2 -18.7096 -4.62351 0 0.133978 0.148492 0 
34 2 8.25352 -28.6829 0 0.142047 0.140793 0 
35 2 17.2773 34.0133 0 0.0760294 0.184985 0 
36 2 5.69448 28.2855 0 0.0826426 0.182127 0 
37 2 -5.73625 10.3388 0 -0.122475 -0.158113 0 
38 2 31.8563 -4.72279 0 -0.0620858 0.190119 0 
39 2 29.5421 6.80606 0 0.0075814 -0.199856 0 
40 2 5.3229 15.8698 0 0.129626 -0.152306 0 
41 2 20.9424 -1.75691 0 -0.191816 -0.0566266 0 
42 2 -19.7827 -28.7881 0 -0.09141 -0.177888 0 
43 2 -28.0853 1.84646 0 0.122451 0.158132 0 
44 2 -6.95755 -0.980687 0 -0.197962 -0.0284765 0 
45 2 2.29198 -7.65917 0 0.18922 0.0647755 0 
46 2 -28.6083 -11.3273 0 -0.199943 0.00477933 0 
47 2 1.65907 -19.0056 0 0.146045 0.136642 0 
48 2 -30.9446 -34.4751 0 0.148291 0.1342 0 
49 2 -31.2571 -22.2603 0 -0.195983 0.039885 0 
50 2 6.4246 3.12084 0 -0.0554983 -0.192146 0 
51 2 -15.0101 18.7166 0 0.123089 -0.157636 0 
52 2 -24.9422 26.0024 0 -0.116514 -0.162556 0 
53 2 -2.26729 -33.4403 0 0.0812937 0.182733 0 
54 2 28.1146 -28.2824 0 -0.190558 -0.060726 0 
55 2 -17.5087 6.99794 0 -0.197542 -0.0312604 0 
56 2 -18.7616 -16.9951 0 -0.15652 0.124505 0 
57 2 -4.32306 22.4913 0 -0.00561379 0.199921 0 
58 2 -27.5178 13.3217 0 -0.198438 0.0249504 0 
59 2 17.6876 22.1599 0 0.164852 0.113242 0 
60 2 16.2585 8.95286 0 -0.0844725 -0.181285 0 
61 2 17.9922 -22.6266 0 0.0959235 0.175496 0 
62 2 12.6216 -12.2271 0 -0.0621768 -0.19009 0 
63 2 -8.28836 -12.6302 0 -0.0572187 -0.19164 0 
64 2 28.005 30.274 0 0.0928835 0.177123 0 
65 2 -12.4844 30.6547 0 -0.199612 0.0124504 0 
66 2 -8.85709 -24.2371 0 -0.146427 0.136231 0 
ITEM: TIMESTEP
10000
ITEM: NUMBER OF ATOMS
66
ITEM: BOX BOUNDS pp pp pp
-3.5000000000000000e+01 3.5000000000000000e+01
-3.5000000000000000e+01 3.5000000000000000e+01
-5.0000000000000000e-01 5.0000000000000000e-01
ITEM: ATOMS id type x y z vx vy vz 
1 1 -2.70066 -4.86975 0 -0.102503 -0.171736 0 